/*--------------------------------*- C++ -*----------------------------------*\
  =========                 |
  \\      /  F ield         | OpenFOAM: The Open Source CFD Toolbox
   \\    /   O peration     | Website:  https://openfoam.org
    \\  /    A nd           | Version:  6
     \\/     M anipulation  |
\*---------------------------------------------------------------------------*/
FoamFile
{
    version     2.0;
    format      ascii;
    class       volScalarField;
    location    "1.5";
    object      p;
}
// * * * * * * * * * * * * * * * * * * * * * * * * * * * * * * * * * * * * * //

dimensions      [1 -1 -2 0 0 0 0];

internalField   nonuniform List<scalar> 
16000
(
2.07782e+07
2.07239e+07
2.06696e+07
2.06153e+07
2.05609e+07
2.05064e+07
2.04519e+07
2.03973e+07
2.03426e+07
2.02878e+07
2.02331e+07
2.01773e+07
2.01205e+07
2.00642e+07
2.00086e+07
1.9954e+07
1.99006e+07
1.98489e+07
1.97992e+07
1.97518e+07
1.97069e+07
1.96416e+07
1.95003e+07
1.93616e+07
1.9225e+07
1.90901e+07
1.89564e+07
1.8823e+07
1.86894e+07
1.85548e+07
1.84188e+07
1.82809e+07
1.82264e+07
1.81903e+07
1.8152e+07
1.81117e+07
1.80695e+07
1.80257e+07
1.79806e+07
1.79344e+07
1.78872e+07
1.78394e+07
1.77897e+07
1.77382e+07
1.76866e+07
1.76349e+07
1.75832e+07
1.75317e+07
1.74805e+07
1.74296e+07
1.73791e+07
1.73291e+07
1.72798e+07
1.72238e+07
1.71588e+07
1.70948e+07
1.70319e+07
1.69702e+07
1.69098e+07
1.6851e+07
1.67938e+07
1.67382e+07
1.66845e+07
1.65915e+07
1.61493e+07
1.57089e+07
1.52705e+07
1.48341e+07
1.43996e+07
1.39672e+07
1.35366e+07
1.31079e+07
1.26809e+07
1.22553e+07
1.21407e+07
1.20755e+07
1.2011e+07
1.19469e+07
1.1883e+07
1.18186e+07
1.17534e+07
1.16871e+07
1.16191e+07
1.15493e+07
1.14633e+07
1.13541e+07
1.1243e+07
1.11298e+07
1.1015e+07
1.08986e+07
1.07808e+07
1.06619e+07
1.0542e+07
1.04213e+07
1.02998e+07
1.02213e+07
1.01628e+07
1.01037e+07
1.00439e+07
9.98333e+06
9.92207e+06
9.86005e+06
9.7973e+06
9.73384e+06
9.6697e+06
9.60839e+06
9.54961e+06
9.49033e+06
9.43061e+06
9.37051e+06
9.31011e+06
9.2495e+06
9.18875e+06
9.12798e+06
9.06732e+06
9.00694e+06
8.93982e+06
8.86431e+06
8.79001e+06
8.7174e+06
8.647e+06
8.57939e+06
8.51514e+06
8.45483e+06
8.39895e+06
8.34787e+06
8.26911e+06
8.00366e+06
7.74231e+06
7.48391e+06
7.22699e+06
6.96974e+06
6.71022e+06
6.44653e+06
6.17699e+06
5.90035e+06
5.61596e+06
5.45053e+06
5.32776e+06
5.19831e+06
5.06318e+06
4.92354e+06
4.78056e+06
4.63535e+06
4.48892e+06
4.34217e+06
4.19589e+06
4.11498e+06
4.06035e+06
4.00727e+06
3.95578e+06
3.90585e+06
3.85742e+06
3.81042e+06
3.76479e+06
3.7205e+06
3.67751e+06
3.63582e+06
3.59187e+06
3.54497e+06
3.49939e+06
3.45511e+06
3.41216e+06
3.37055e+06
3.33029e+06
3.29141e+06
3.25395e+06
3.21798e+06
3.16909e+06
3.08637e+06
3.00555e+06
2.92686e+06
2.85058e+06
2.777e+06
2.70642e+06
2.63917e+06
2.57554e+06
2.51578e+06
2.46002e+06
2.37662e+06
2.16627e+06
1.95832e+06
1.75141e+06
1.54402e+06
1.33462e+06
1.1218e+06
904455
681847
453722
419825
396270
367710
334605
297523
257077
213875
168498
121485
73336.2
24518.9
2.07782e+07
2.07239e+07
2.06696e+07
2.06153e+07
2.05609e+07
2.05065e+07
2.0452e+07
2.03974e+07
2.03426e+07
2.02878e+07
2.0233e+07
2.0177e+07
2.01201e+07
2.00635e+07
2.00076e+07
1.99527e+07
1.9899e+07
1.9847e+07
1.97969e+07
1.97493e+07
1.97042e+07
1.9639e+07
1.94978e+07
1.93594e+07
1.92233e+07
1.90891e+07
1.89559e+07
1.88233e+07
1.86903e+07
1.85563e+07
1.84207e+07
1.82831e+07
1.82286e+07
1.81925e+07
1.8154e+07
1.81135e+07
1.80711e+07
1.80271e+07
1.79817e+07
1.79353e+07
1.78879e+07
1.78399e+07
1.779e+07
1.77384e+07
1.76866e+07
1.76348e+07
1.75831e+07
1.75315e+07
1.74802e+07
1.74292e+07
1.73786e+07
1.73286e+07
1.72791e+07
1.7223e+07
1.71579e+07
1.70937e+07
1.70307e+07
1.69688e+07
1.69083e+07
1.68494e+07
1.67921e+07
1.67365e+07
1.66827e+07
1.65897e+07
1.61474e+07
1.57069e+07
1.52685e+07
1.48321e+07
1.43977e+07
1.39652e+07
1.35348e+07
1.31062e+07
1.26794e+07
1.22542e+07
1.21398e+07
1.20747e+07
1.20106e+07
1.19469e+07
1.18833e+07
1.18194e+07
1.17547e+07
1.16887e+07
1.1621e+07
1.15513e+07
1.14654e+07
1.13562e+07
1.12449e+07
1.11316e+07
1.10165e+07
1.08999e+07
1.0782e+07
1.06629e+07
1.05428e+07
1.0422e+07
1.03004e+07
1.02219e+07
1.01635e+07
1.01044e+07
1.00446e+07
9.98407e+06
9.92281e+06
9.86079e+06
9.79802e+06
9.73451e+06
9.67032e+06
9.60896e+06
9.55012e+06
9.49078e+06
9.43098e+06
9.37081e+06
9.31033e+06
9.24962e+06
9.18877e+06
9.12787e+06
9.06704e+06
9.00644e+06
8.93902e+06
8.8631e+06
8.78832e+06
8.71518e+06
8.64422e+06
8.57602e+06
8.51121e+06
8.45039e+06
8.39414e+06
8.34289e+06
8.26427e+06
7.99957e+06
7.73934e+06
7.48245e+06
7.22731e+06
6.972e+06
6.7144e+06
6.45238e+06
6.18408e+06
5.90809e+06
5.62369e+06
5.45792e+06
5.33444e+06
5.20398e+06
5.0677e+06
4.92689e+06
4.78279e+06
4.63657e+06
4.48924e+06
4.3417e+06
4.19475e+06
4.11353e+06
4.05878e+06
4.00568e+06
3.95422e+06
3.90435e+06
3.85599e+06
3.80905e+06
3.76346e+06
3.71919e+06
3.67621e+06
3.63452e+06
3.59057e+06
3.54366e+06
3.49807e+06
3.45379e+06
3.41083e+06
3.3692e+06
3.3289e+06
3.28998e+06
3.25247e+06
3.21643e+06
3.16742e+06
3.08448e+06
3.00341e+06
2.92446e+06
2.84789e+06
2.77399e+06
2.70309e+06
2.63554e+06
2.57167e+06
2.51178e+06
2.45605e+06
2.37303e+06
2.16385e+06
1.95729e+06
1.75189e+06
1.54603e+06
1.33803e+06
1.12634e+06
909715
687363
459066
425106
401275
372256
338582
300888
259832
216050
170134
122622
74004.3
24739.3
2.07782e+07
2.0724e+07
2.06697e+07
2.06154e+07
2.0561e+07
2.05066e+07
2.04521e+07
2.03975e+07
2.03428e+07
2.02879e+07
2.02328e+07
2.01766e+07
2.01193e+07
2.00622e+07
2.00057e+07
1.99501e+07
1.98957e+07
1.9843e+07
1.97923e+07
1.97441e+07
1.96988e+07
1.96334e+07
1.94926e+07
1.93549e+07
1.92198e+07
1.90868e+07
1.89551e+07
1.88238e+07
1.86922e+07
1.85593e+07
1.84246e+07
1.82876e+07
1.82332e+07
1.81969e+07
1.81582e+07
1.81172e+07
1.80743e+07
1.80298e+07
1.7984e+07
1.79371e+07
1.78893e+07
1.78409e+07
1.77907e+07
1.77388e+07
1.76867e+07
1.76347e+07
1.75827e+07
1.7531e+07
1.74795e+07
1.74283e+07
1.73776e+07
1.73274e+07
1.72777e+07
1.72214e+07
1.71561e+07
1.70916e+07
1.70282e+07
1.6966e+07
1.69053e+07
1.68461e+07
1.67886e+07
1.67329e+07
1.6679e+07
1.6586e+07
1.61435e+07
1.5703e+07
1.52645e+07
1.48281e+07
1.43937e+07
1.39613e+07
1.3531e+07
1.31028e+07
1.26764e+07
1.22519e+07
1.21378e+07
1.20731e+07
1.20096e+07
1.19467e+07
1.1884e+07
1.1821e+07
1.17572e+07
1.16919e+07
1.16248e+07
1.15555e+07
1.14697e+07
1.13604e+07
1.12488e+07
1.11351e+07
1.10196e+07
1.09026e+07
1.07842e+07
1.06648e+07
1.05445e+07
1.04234e+07
1.03018e+07
1.02232e+07
1.01648e+07
1.01057e+07
1.0046e+07
9.98555e+06
9.92432e+06
9.86229e+06
9.79946e+06
9.73587e+06
9.67158e+06
9.6101e+06
9.55114e+06
9.49166e+06
9.43173e+06
9.37142e+06
9.31078e+06
9.2499e+06
9.18884e+06
9.12769e+06
9.06654e+06
9.00552e+06
8.93749e+06
8.86073e+06
8.785e+06
8.71079e+06
8.63867e+06
8.56927e+06
8.50328e+06
8.4414e+06
8.38433e+06
8.33267e+06
8.25428e+06
7.991e+06
7.73304e+06
7.47923e+06
7.22781e+06
6.97656e+06
6.72298e+06
6.46453e+06
6.19888e+06
5.92424e+06
5.63972e+06
5.47316e+06
5.34812e+06
5.21546e+06
5.07674e+06
4.93351e+06
4.78716e+06
4.63889e+06
4.48975e+06
4.34065e+06
4.19236e+06
4.11053e+06
4.05558e+06
4.00245e+06
3.95108e+06
3.90135e+06
3.85314e+06
3.80632e+06
3.76081e+06
3.71658e+06
3.67362e+06
3.63192e+06
3.58795e+06
3.54104e+06
3.49544e+06
3.45115e+06
3.40817e+06
3.3665e+06
3.32615e+06
3.28714e+06
3.24952e+06
3.21334e+06
3.16409e+06
3.08071e+06
2.99916e+06
2.91968e+06
2.84252e+06
2.76798e+06
2.69642e+06
2.62823e+06
2.56383e+06
2.50362e+06
2.44791e+06
2.36563e+06
2.15883e+06
1.9551e+06
1.75284e+06
1.55017e+06
1.34512e+06
1.13581e+06
920704
698823
470028
435908
411467
381457
346580
307613
265312
220361
173367
124862
75320.4
25173.1
2.07783e+07
2.0724e+07
2.06698e+07
2.06155e+07
2.05612e+07
2.05069e+07
2.04524e+07
2.03979e+07
2.03431e+07
2.02881e+07
2.02328e+07
2.01761e+07
2.01182e+07
2.00603e+07
2.00029e+07
1.99463e+07
1.98908e+07
1.98369e+07
1.97852e+07
1.97361e+07
1.96902e+07
1.96248e+07
1.94843e+07
1.93476e+07
1.92142e+07
1.90833e+07
1.89538e+07
1.88248e+07
1.86953e+07
1.85642e+07
1.84308e+07
1.82946e+07
1.82404e+07
1.82038e+07
1.81645e+07
1.81228e+07
1.80792e+07
1.80339e+07
1.79873e+07
1.79397e+07
1.78913e+07
1.78423e+07
1.77916e+07
1.77393e+07
1.76869e+07
1.76345e+07
1.75822e+07
1.75302e+07
1.74784e+07
1.74271e+07
1.73761e+07
1.73257e+07
1.72758e+07
1.72191e+07
1.71533e+07
1.70884e+07
1.70245e+07
1.69619e+07
1.69007e+07
1.68412e+07
1.67834e+07
1.67274e+07
1.66735e+07
1.65804e+07
1.61377e+07
1.56971e+07
1.52585e+07
1.48221e+07
1.43877e+07
1.39554e+07
1.35253e+07
1.30974e+07
1.26717e+07
1.22482e+07
1.21344e+07
1.20705e+07
1.20079e+07
1.19464e+07
1.18851e+07
1.18236e+07
1.17611e+07
1.1697e+07
1.16308e+07
1.15621e+07
1.14764e+07
1.13669e+07
1.12548e+07
1.11405e+07
1.10243e+07
1.09066e+07
1.07876e+07
1.06676e+07
1.05469e+07
1.04255e+07
1.03036e+07
1.02251e+07
1.01667e+07
1.01078e+07
1.00482e+07
9.98782e+06
9.92663e+06
9.86457e+06
9.80167e+06
9.73795e+06
9.67348e+06
9.61182e+06
9.55268e+06
9.49301e+06
9.43287e+06
9.37234e+06
9.31148e+06
9.25035e+06
9.18901e+06
9.12751e+06
9.06591e+06
9.00428e+06
8.93535e+06
8.85734e+06
8.78015e+06
8.7043e+06
8.63039e+06
8.55912e+06
8.49123e+06
8.42759e+06
8.36911e+06
8.31667e+06
8.23851e+06
7.97713e+06
7.72257e+06
7.47362e+06
7.22815e+06
6.98345e+06
6.73643e+06
6.48386e+06
6.22266e+06
5.95026e+06
5.66536e+06
5.49725e+06
5.36941e+06
5.23301e+06
5.0903e+06
4.94325e+06
4.79344e+06
4.6421e+06
4.49024e+06
4.33877e+06
4.18848e+06
4.10575e+06
4.05055e+06
3.99745e+06
3.94629e+06
3.89684e+06
3.84888e+06
3.80227e+06
3.7569e+06
3.71272e+06
3.66975e+06
3.62802e+06
3.58403e+06
3.53709e+06
3.49149e+06
3.4472e+06
3.40421e+06
3.36249e+06
3.32205e+06
3.28292e+06
3.24513e+06
3.20874e+06
3.15914e+06
3.07511e+06
2.99285e+06
2.91257e+06
2.83452e+06
2.759e+06
2.68638e+06
2.61714e+06
2.55179e+06
2.49095e+06
2.43515e+06
2.35394e+06
2.15073e+06
1.95144e+06
1.7542e+06
1.5567e+06
1.35647e+06
1.15109e+06
938461
717199
487204
452755
427229
395524
358667
317674
273441
226715
178110
128140
77241.9
25806.1
2.07783e+07
2.07241e+07
2.06699e+07
2.06157e+07
2.05615e+07
2.05072e+07
2.04529e+07
2.03984e+07
2.03436e+07
2.02885e+07
2.02329e+07
2.01757e+07
2.01169e+07
2.0058e+07
1.99994e+07
1.99413e+07
1.98843e+07
1.98287e+07
1.97754e+07
1.97249e+07
1.9678e+07
1.96123e+07
1.94723e+07
1.93371e+07
1.92062e+07
1.90782e+07
1.89521e+07
1.88264e+07
1.86999e+07
1.85714e+07
1.84399e+07
1.83047e+07
1.82505e+07
1.82134e+07
1.81732e+07
1.81304e+07
1.80856e+07
1.80393e+07
1.79917e+07
1.79431e+07
1.78939e+07
1.78442e+07
1.77928e+07
1.77399e+07
1.7687e+07
1.76341e+07
1.75815e+07
1.75291e+07
1.7477e+07
1.74254e+07
1.73741e+07
1.73234e+07
1.72732e+07
1.72161e+07
1.71497e+07
1.70841e+07
1.70195e+07
1.69563e+07
1.68945e+07
1.68345e+07
1.67763e+07
1.67201e+07
1.66659e+07
1.65727e+07
1.61298e+07
1.5689e+07
1.52504e+07
1.48139e+07
1.43796e+07
1.39473e+07
1.35173e+07
1.30897e+07
1.26647e+07
1.22425e+07
1.21293e+07
1.20663e+07
1.20054e+07
1.19457e+07
1.18865e+07
1.1827e+07
1.17665e+07
1.17043e+07
1.16395e+07
1.15715e+07
1.14859e+07
1.1376e+07
1.1263e+07
1.11477e+07
1.10305e+07
1.09118e+07
1.0792e+07
1.06713e+07
1.05499e+07
1.04281e+07
1.0306e+07
1.02274e+07
1.01692e+07
1.01105e+07
1.00511e+07
9.99091e+06
9.9298e+06
9.86771e+06
9.80468e+06
9.74076e+06
9.67605e+06
9.61414e+06
9.55475e+06
9.49482e+06
9.43441e+06
9.3736e+06
9.31244e+06
9.251e+06
9.18933e+06
9.12743e+06
9.0653e+06
9.00293e+06
8.93282e+06
8.85315e+06
8.77397e+06
8.69587e+06
8.61949e+06
8.54557e+06
8.47494e+06
8.40863e+06
8.34785e+06
8.29399e+06
8.21584e+06
7.95645e+06
7.7065e+06
7.46452e+06
7.22773e+06
6.99265e+06
6.75542e+06
6.51185e+06
6.25763e+06
5.9888e+06
5.70294e+06
5.53192e+06
5.39926e+06
5.25688e+06
5.1082e+06
4.95576e+06
4.80124e+06
4.64581e+06
4.49035e+06
4.3357e+06
4.18272e+06
4.09883e+06
4.04341e+06
3.99052e+06
3.93979e+06
3.89082e+06
3.8433e+06
3.79699e+06
3.75178e+06
3.70765e+06
3.66463e+06
3.62283e+06
3.57877e+06
3.53182e+06
3.48624e+06
3.44197e+06
3.39896e+06
3.35719e+06
3.31664e+06
3.27734e+06
3.23933e+06
3.20267e+06
3.15261e+06
3.06774e+06
2.98455e+06
2.90323e+06
2.82399e+06
2.74711e+06
2.67298e+06
2.60213e+06
2.53526e+06
2.47324e+06
2.41703e+06
2.33711e+06
2.13871e+06
1.94574e+06
1.75581e+06
1.56595e+06
1.37297e+06
1.17363e+06
964848
744308
511663
476555
449169
414745
374889
330975
284064
234947
184219
132345
79701.4
26615.3
2.07783e+07
2.07241e+07
2.06699e+07
2.06158e+07
2.05618e+07
2.05077e+07
2.04535e+07
2.03992e+07
2.03445e+07
2.02894e+07
2.02336e+07
2.01757e+07
2.01158e+07
2.00555e+07
1.99952e+07
1.99353e+07
1.98762e+07
1.98184e+07
1.97627e+07
1.971e+07
1.96614e+07
1.9595e+07
1.94553e+07
1.93224e+07
1.91951e+07
1.90714e+07
1.89498e+07
1.88287e+07
1.87065e+07
1.85817e+07
1.84528e+07
1.83185e+07
1.82642e+07
1.8226e+07
1.81843e+07
1.814e+07
1.80937e+07
1.80459e+07
1.7997e+07
1.79472e+07
1.78969e+07
1.78463e+07
1.77941e+07
1.77405e+07
1.7687e+07
1.76336e+07
1.75805e+07
1.75277e+07
1.74752e+07
1.74232e+07
1.73717e+07
1.73207e+07
1.72701e+07
1.72124e+07
1.71452e+07
1.70787e+07
1.70132e+07
1.69491e+07
1.68866e+07
1.68259e+07
1.67672e+07
1.67106e+07
1.66562e+07
1.6563e+07
1.61197e+07
1.56788e+07
1.52402e+07
1.48037e+07
1.43693e+07
1.3937e+07
1.3507e+07
1.30795e+07
1.2655e+07
1.22342e+07
1.21217e+07
1.20603e+07
1.20015e+07
1.19444e+07
1.18881e+07
1.18315e+07
1.17738e+07
1.1714e+07
1.16513e+07
1.15845e+07
1.1499e+07
1.1388e+07
1.12737e+07
1.11568e+07
1.10382e+07
1.09182e+07
1.07972e+07
1.06755e+07
1.05533e+07
1.04309e+07
1.03085e+07
1.023e+07
1.01721e+07
1.01138e+07
1.00549e+07
9.99494e+06
9.93393e+06
9.87181e+06
9.80859e+06
9.74437e+06
9.67931e+06
9.61706e+06
9.55736e+06
9.49711e+06
9.43636e+06
9.37519e+06
9.31368e+06
9.2519e+06
9.18988e+06
9.12759e+06
9.06494e+06
9.00176e+06
8.93025e+06
8.84845e+06
8.76671e+06
8.68571e+06
8.60614e+06
8.52873e+06
8.45434e+06
8.38413e+06
8.31968e+06
8.26317e+06
8.18436e+06
7.92632e+06
7.68245e+06
7.45024e+06
7.2256e+06
7.00402e+06
6.78074e+06
6.55048e+06
6.30721e+06
6.04436e+06
5.75666e+06
5.57996e+06
5.43883e+06
5.28703e+06
5.12987e+06
4.97034e+06
4.80997e+06
4.64955e+06
4.48965e+06
4.33095e+06
4.17448e+06
4.08917e+06
4.03373e+06
3.98144e+06
3.93153e+06
3.88337e+06
3.83649e+06
3.7906e+06
3.74559e+06
3.70146e+06
3.65831e+06
3.61632e+06
3.57214e+06
3.52518e+06
3.47966e+06
3.43546e+06
3.39249e+06
3.35067e+06
3.31e+06
3.27048e+06
3.23219e+06
3.19518e+06
3.14456e+06
3.05868e+06
2.9744e+06
2.89181e+06
2.81109e+06
2.73247e+06
2.6563e+06
2.58315e+06
2.51388e+06
2.44972e+06
2.39234e+06
2.31364e+06
2.12126e+06
1.937e+06
1.75734e+06
1.57831e+06
1.39584e+06
1.20561e+06
1.00299e+06
783523
545287
508815
478147
439398
395168
347273
296893
244789
191475
137318
82603.6
27569.2
2.07782e+07
2.0724e+07
2.067e+07
2.0616e+07
2.05621e+07
2.05082e+07
2.04543e+07
2.04003e+07
2.0346e+07
2.0291e+07
2.02351e+07
2.01764e+07
2.01152e+07
2.0053e+07
1.99906e+07
1.99284e+07
1.98667e+07
1.98061e+07
1.97471e+07
1.96909e+07
1.96393e+07
1.9571e+07
1.94315e+07
1.93023e+07
1.91802e+07
1.90626e+07
1.89471e+07
1.88321e+07
1.87157e+07
1.85961e+07
1.84709e+07
1.83376e+07
1.82824e+07
1.82422e+07
1.81982e+07
1.81516e+07
1.81032e+07
1.80537e+07
1.80031e+07
1.79519e+07
1.79003e+07
1.78485e+07
1.77954e+07
1.7741e+07
1.76869e+07
1.76329e+07
1.75792e+07
1.75258e+07
1.74729e+07
1.74205e+07
1.73687e+07
1.73175e+07
1.72666e+07
1.72083e+07
1.714e+07
1.70723e+07
1.70056e+07
1.69404e+07
1.68769e+07
1.68154e+07
1.6756e+07
1.66989e+07
1.66443e+07
1.65509e+07
1.61074e+07
1.56664e+07
1.52278e+07
1.47914e+07
1.43569e+07
1.39244e+07
1.3494e+07
1.30661e+07
1.26417e+07
1.22221e+07
1.21106e+07
1.20514e+07
1.1996e+07
1.19425e+07
1.18899e+07
1.1837e+07
1.1783e+07
1.17268e+07
1.16671e+07
1.16022e+07
1.15164e+07
1.14035e+07
1.12868e+07
1.11677e+07
1.10471e+07
1.09256e+07
1.08032e+07
1.06803e+07
1.0557e+07
1.04337e+07
1.0311e+07
1.02327e+07
1.01754e+07
1.01179e+07
1.00596e+07
1e+07
9.9392e+06
9.87699e+06
9.81348e+06
9.74883e+06
9.68327e+06
9.62059e+06
9.56052e+06
9.49989e+06
9.43873e+06
9.37713e+06
9.3152e+06
9.25303e+06
9.19069e+06
9.12811e+06
9.0651e+06
9.00124e+06
8.92815e+06
8.84369e+06
8.75872e+06
8.67413e+06
8.59062e+06
8.50885e+06
8.42957e+06
8.35385e+06
8.28357e+06
8.22198e+06
8.1404e+06
7.88201e+06
7.64676e+06
7.4284e+06
7.2204e+06
7.01708e+06
6.81303e+06
6.60213e+06
6.37635e+06
6.12479e+06
5.83469e+06
5.64589e+06
5.48906e+06
5.32255e+06
5.1539e+06
4.98576e+06
4.81874e+06
4.65277e+06
4.48775e+06
4.32398e+06
4.16279e+06
4.07582e+06
4.02092e+06
3.96996e+06
3.92153e+06
3.87463e+06
3.82868e+06
3.78335e+06
3.73853e+06
3.69429e+06
3.6508e+06
3.60843e+06
3.56401e+06
3.5171e+06
3.47176e+06
3.42774e+06
3.38485e+06
3.34301e+06
3.30218e+06
3.26241e+06
3.22375e+06
3.18631e+06
3.13504e+06
3.04803e+06
2.96253e+06
2.87854e+06
2.79611e+06
2.71537e+06
2.6366e+06
2.5603e+06
2.48738e+06
2.41943e+06
2.35914e+06
2.28064e+06
2.0957e+06
1.92365e+06
1.75826e+06
1.59413e+06
1.42645e+06
1.24998e+06
1.05799e+06
841503
591883
552079
515205
469533
419112
366057
311445
255843
199574
142850
85825.2
28627.2
2.0778e+07
2.07239e+07
2.06699e+07
2.0616e+07
2.05623e+07
2.05087e+07
2.04552e+07
2.04017e+07
2.0348e+07
2.02937e+07
2.02381e+07
2.01786e+07
2.01153e+07
2.00508e+07
1.99859e+07
1.9921e+07
1.98563e+07
1.97921e+07
1.97288e+07
1.96672e+07
1.96097e+07
1.95359e+07
1.93974e+07
1.92749e+07
1.9161e+07
1.90515e+07
1.8944e+07
1.88368e+07
1.87282e+07
1.86161e+07
1.84971e+07
1.83653e+07
1.83064e+07
1.82623e+07
1.82145e+07
1.81649e+07
1.8114e+07
1.80623e+07
1.801e+07
1.79571e+07
1.79038e+07
1.78506e+07
1.77964e+07
1.77413e+07
1.76865e+07
1.76319e+07
1.75776e+07
1.75236e+07
1.74701e+07
1.74173e+07
1.73652e+07
1.73139e+07
1.72629e+07
1.72041e+07
1.71342e+07
1.70648e+07
1.69965e+07
1.69299e+07
1.68652e+07
1.68028e+07
1.67426e+07
1.66849e+07
1.66297e+07
1.65362e+07
1.60924e+07
1.56516e+07
1.52133e+07
1.4777e+07
1.43426e+07
1.39098e+07
1.34786e+07
1.30494e+07
1.26235e+07
1.2204e+07
1.2094e+07
1.2039e+07
1.19884e+07
1.19399e+07
1.18919e+07
1.18437e+07
1.17945e+07
1.17432e+07
1.16882e+07
1.16266e+07
1.15399e+07
1.1423e+07
1.13022e+07
1.118e+07
1.10571e+07
1.09337e+07
1.08098e+07
1.06854e+07
1.05606e+07
1.0436e+07
1.03124e+07
1.02349e+07
1.0179e+07
1.01228e+07
1.00654e+07
1.00065e+07
9.94582e+06
9.88347e+06
9.81952e+06
9.7542e+06
9.68787e+06
9.62467e+06
9.56424e+06
9.5032e+06
9.44154e+06
9.3794e+06
9.31694e+06
9.25434e+06
9.19172e+06
9.12907e+06
9.06612e+06
9.00208e+06
8.92741e+06
8.83943e+06
8.75037e+06
8.66145e+06
8.57336e+06
8.4865e+06
8.40123e+06
8.31816e+06
8.23875e+06
8.16695e+06
8.07487e+06
7.81455e+06
7.59416e+06
7.3962e+06
7.21052e+06
7.03087e+06
6.85219e+06
6.66865e+06
6.47128e+06
6.24376e+06
5.95599e+06
5.73697e+06
5.54896e+06
5.36022e+06
5.17743e+06
5.00006e+06
4.82646e+06
4.65505e+06
4.48459e+06
4.31444e+06
4.14591e+06
4.05708e+06
4.00415e+06
3.95596e+06
3.90999e+06
3.86496e+06
3.82024e+06
3.77557e+06
3.73091e+06
3.68635e+06
3.64219e+06
3.59898e+06
3.55406e+06
3.50743e+06
3.46256e+06
3.41889e+06
3.37618e+06
3.33432e+06
3.29332e+06
3.25321e+06
3.21409e+06
3.17609e+06
3.12403e+06
3.03587e+06
2.94916e+06
2.86371e+06
2.77942e+06
2.6963e+06
2.61442e+06
2.53407e+06
2.45591e+06
2.38149e+06
2.31439e+06
2.2312e+06
2.05726e+06
1.90364e+06
1.7579e+06
1.6135e+06
1.46584e+06
1.30988e+06
1.13749e+06
932614
663025
610757
561062
504416
445688
386399
326988
267561
208129
148683
89219.8
29741.8
2.07777e+07
2.07236e+07
2.06697e+07
2.0616e+07
2.05624e+07
2.05091e+07
2.0456e+07
2.04032e+07
2.03505e+07
2.02977e+07
2.02438e+07
2.01834e+07
2.01167e+07
2.0049e+07
1.99811e+07
1.99133e+07
1.98454e+07
1.97772e+07
1.97086e+07
1.96394e+07
1.95705e+07
1.94763e+07
1.93474e+07
1.9239e+07
1.91374e+07
1.90385e+07
1.89407e+07
1.88428e+07
1.87441e+07
1.8643e+07
1.85362e+07
1.84122e+07
1.83381e+07
1.8286e+07
1.82328e+07
1.81794e+07
1.81257e+07
1.80717e+07
1.80173e+07
1.79625e+07
1.79074e+07
1.78522e+07
1.77968e+07
1.77413e+07
1.7686e+07
1.76307e+07
1.75756e+07
1.75208e+07
1.74667e+07
1.74133e+07
1.7361e+07
1.73098e+07
1.72595e+07
1.72005e+07
1.71281e+07
1.70562e+07
1.69858e+07
1.69175e+07
1.68514e+07
1.67878e+07
1.67267e+07
1.66682e+07
1.66124e+07
1.65182e+07
1.60745e+07
1.56343e+07
1.51966e+07
1.47609e+07
1.43267e+07
1.38936e+07
1.34612e+07
1.30294e+07
1.25987e+07
1.21742e+07
1.2069e+07
1.20221e+07
1.19789e+07
1.19365e+07
1.18942e+07
1.18514e+07
1.1808e+07
1.17632e+07
1.17158e+07
1.1662e+07
1.15726e+07
1.14461e+07
1.13191e+07
1.11931e+07
1.10677e+07
1.09424e+07
1.08169e+07
1.06909e+07
1.05642e+07
1.04371e+07
1.03111e+07
1.0236e+07
1.0183e+07
1.01289e+07
1.00728e+07
1.00146e+07
9.95415e+06
9.89155e+06
9.82695e+06
9.76056e+06
9.69292e+06
9.62917e+06
9.56857e+06
9.50712e+06
9.44484e+06
9.38199e+06
9.31883e+06
9.25568e+06
9.19279e+06
9.13033e+06
9.06822e+06
9.00552e+06
8.92975e+06
8.83626e+06
8.74185e+06
8.64796e+06
8.55488e+06
8.46255e+06
8.37068e+06
8.27879e+06
8.18634e+06
8.09401e+06
7.95361e+06
7.70716e+06
7.51913e+06
7.35173e+06
7.19462e+06
7.04368e+06
6.8962e+06
6.74902e+06
6.59634e+06
6.423e+06
6.17627e+06
5.86329e+06
5.60957e+06
5.39195e+06
5.19552e+06
5.01061e+06
4.83199e+06
4.65637e+06
4.48112e+06
4.30328e+06
4.11985e+06
4.02968e+06
3.98267e+06
3.93973e+06
3.89752e+06
3.85498e+06
3.81175e+06
3.76779e+06
3.72317e+06
3.67803e+06
3.63263e+06
3.5876e+06
3.54148e+06
3.496e+06
3.45214e+06
3.40909e+06
3.36664e+06
3.32478e+06
3.28356e+06
3.24304e+06
3.20332e+06
3.16453e+06
3.11133e+06
3.02226e+06
2.93453e+06
2.8477e+06
2.76158e+06
2.67598e+06
2.59072e+06
2.50564e+06
2.42069e+06
2.33621e+06
2.25423e+06
2.14224e+06
1.99852e+06
1.87573e+06
1.75621e+06
1.63613e+06
1.51355e+06
1.38619e+06
1.24946e+06
1.08844e+06
824594
690949
613871
541382
472827
406862
342547
279285
216697
154534
92629
30861.9
2.07772e+07
2.07232e+07
2.06694e+07
2.06157e+07
2.05624e+07
2.05093e+07
2.04567e+07
2.04046e+07
2.03532e+07
2.03029e+07
2.02546e+07
2.01965e+07
2.01198e+07
2.00467e+07
1.99748e+07
1.99032e+07
1.98312e+07
1.9758e+07
1.96825e+07
1.96018e+07
1.95075e+07
1.94045e+07
1.93109e+07
1.92169e+07
1.91238e+07
1.90313e+07
1.89389e+07
1.88464e+07
1.87535e+07
1.86599e+07
1.85653e+07
1.84709e+07
1.83839e+07
1.83161e+07
1.82553e+07
1.81973e+07
1.81403e+07
1.80836e+07
1.80268e+07
1.79696e+07
1.79117e+07
1.78525e+07
1.77958e+07
1.77411e+07
1.76853e+07
1.76291e+07
1.7573e+07
1.75171e+07
1.7462e+07
1.74078e+07
1.73552e+07
1.73045e+07
1.72569e+07
1.72e+07
1.71192e+07
1.70426e+07
1.69689e+07
1.68979e+07
1.68298e+07
1.67645e+07
1.6702e+07
1.66423e+07
1.65852e+07
1.64865e+07
1.60469e+07
1.56088e+07
1.51726e+07
1.4738e+07
1.43046e+07
1.38716e+07
1.34381e+07
1.30021e+07
1.25588e+07
1.20916e+07
1.20412e+07
1.20076e+07
1.19715e+07
1.19342e+07
1.18961e+07
1.18574e+07
1.18184e+07
1.17792e+07
1.17401e+07
1.17018e+07
1.16434e+07
1.14813e+07
1.13427e+07
1.12114e+07
1.10831e+07
1.09557e+07
1.08282e+07
1.07e+07
1.05701e+07
1.0437e+07
1.02954e+07
1.02346e+07
1.01886e+07
1.01379e+07
1.00836e+07
1.00262e+07
9.96591e+06
9.90289e+06
9.83727e+06
9.76911e+06
9.69825e+06
9.63391e+06
9.57394e+06
9.51203e+06
9.44886e+06
9.38497e+06
9.32079e+06
9.2568e+06
9.19344e+06
9.13127e+06
9.07101e+06
9.01418e+06
8.94317e+06
8.83315e+06
8.72931e+06
8.62807e+06
8.52816e+06
8.42865e+06
8.32829e+06
8.22489e+06
8.11335e+06
7.97857e+06
7.80257e+06
7.63695e+06
7.47863e+06
7.32854e+06
7.18527e+06
7.04764e+06
6.9147e+06
6.78539e+06
6.65804e+06
6.52997e+06
6.39909e+06
6.17384e+06
5.65667e+06
5.41218e+06
5.20813e+06
5.01878e+06
4.83683e+06
4.65821e+06
4.47944e+06
4.2926e+06
4.02818e+06
3.98829e+06
3.95802e+06
3.92336e+06
3.88582e+06
3.846e+06
3.80427e+06
3.76092e+06
3.7162e+06
3.67024e+06
3.62305e+06
3.57407e+06
3.52842e+06
3.48635e+06
3.44386e+06
3.4014e+06
3.35916e+06
3.31727e+06
3.27583e+06
3.23494e+06
3.19466e+06
3.155e+06
3.10052e+06
3.0118e+06
2.92364e+06
2.836e+06
2.74872e+06
2.66151e+06
2.57399e+06
2.48564e+06
2.3957e+06
2.30275e+06
2.20338e+06
2.0944e+06
1.98213e+06
1.86932e+06
1.75598e+06
1.6413e+06
1.52435e+06
1.40382e+06
1.2775e+06
1.14165e+06
992909
818315
685937
590750
509516
434982
364228
295801
228866
162893
97518.3
32471.4
2.07766e+07
2.07226e+07
2.06688e+07
2.06152e+07
2.05619e+07
2.05091e+07
2.04568e+07
2.04053e+07
2.03549e+07
2.03061e+07
2.026e+07
2.02031e+07
2.01208e+07
2.00421e+07
1.9965e+07
1.98883e+07
1.98109e+07
1.97315e+07
1.96484e+07
1.95586e+07
1.9457e+07
1.93677e+07
1.92865e+07
1.92012e+07
1.91141e+07
1.90262e+07
1.89378e+07
1.88493e+07
1.87607e+07
1.86723e+07
1.85848e+07
1.85001e+07
1.84199e+07
1.83474e+07
1.82814e+07
1.8219e+07
1.81585e+07
1.80988e+07
1.80393e+07
1.79793e+07
1.79184e+07
1.78561e+07
1.77975e+07
1.77419e+07
1.7685e+07
1.76274e+07
1.75697e+07
1.75124e+07
1.74557e+07
1.74003e+07
1.73466e+07
1.72955e+07
1.72479e+07
1.71893e+07
1.71019e+07
1.70193e+07
1.69408e+07
1.6866e+07
1.67947e+07
1.6727e+07
1.66625e+07
1.66013e+07
1.6543e+07
1.64439e+07
1.60064e+07
1.55708e+07
1.5137e+07
1.47047e+07
1.4273e+07
1.38412e+07
1.34078e+07
1.29707e+07
1.25263e+07
1.20692e+07
1.20271e+07
1.19988e+07
1.1967e+07
1.19331e+07
1.18981e+07
1.18625e+07
1.18268e+07
1.17916e+07
1.17579e+07
1.17275e+07
1.16863e+07
1.15259e+07
1.13808e+07
1.12441e+07
1.11118e+07
1.09813e+07
1.08509e+07
1.07192e+07
1.05847e+07
1.04454e+07
1.02978e+07
1.0242e+07
1.01999e+07
1.01518e+07
1.0099e+07
1.00423e+07
9.98203e+06
9.91841e+06
9.85158e+06
9.78157e+06
9.70831e+06
9.64236e+06
9.58147e+06
9.51836e+06
9.45377e+06
9.38834e+06
9.32265e+06
9.25731e+06
9.19294e+06
9.13032e+06
9.07048e+06
9.01498e+06
8.94383e+06
8.82186e+06
8.70618e+06
8.59419e+06
8.48402e+06
8.37398e+06
8.26194e+06
8.14477e+06
8.01713e+06
7.86984e+06
7.72344e+06
7.58511e+06
7.4447e+06
7.30702e+06
7.1737e+06
7.04546e+06
6.92281e+06
6.80649e+06
6.6979e+06
6.60063e+06
6.52536e+06
6.48478e+06
5.97326e+06
5.62492e+06
5.35123e+06
5.11367e+06
4.89403e+06
4.6814e+06
4.46647e+06
4.23653e+06
3.96759e+06
3.95833e+06
3.9386e+06
3.91043e+06
3.8768e+06
3.83924e+06
3.79866e+06
3.75567e+06
3.71069e+06
3.66397e+06
3.61557e+06
3.56529e+06
3.5202e+06
3.47913e+06
3.43727e+06
3.39509e+06
3.35289e+06
3.31086e+06
3.26915e+06
3.2279e+06
3.1872e+06
3.14707e+06
3.09218e+06
3.0032e+06
2.91472e+06
2.82665e+06
2.73876e+06
2.65068e+06
2.56193e+06
2.47185e+06
2.37949e+06
2.28341e+06
2.18138e+06
2.07764e+06
1.97352e+06
1.86629e+06
1.75718e+06
1.64644e+06
1.53396e+06
1.41944e+06
1.30264e+06
1.18419e+06
1.06851e+06
939142
791336
674476
575407
486839
404797
326986
251980
178833
106865
35551.6
2.07759e+07
2.07219e+07
2.0668e+07
2.06144e+07
2.05611e+07
2.05083e+07
2.04561e+07
2.04048e+07
2.03549e+07
2.03068e+07
2.02612e+07
2.02037e+07
2.01184e+07
2.00358e+07
1.99548e+07
1.98741e+07
1.97926e+07
1.97088e+07
1.96211e+07
1.95273e+07
1.94248e+07
1.93409e+07
1.92664e+07
1.91871e+07
1.91051e+07
1.90215e+07
1.8937e+07
1.88522e+07
1.87676e+07
1.86837e+07
1.86014e+07
1.85222e+07
1.84455e+07
1.83722e+07
1.83039e+07
1.82389e+07
1.81759e+07
1.8114e+07
1.80522e+07
1.79899e+07
1.79266e+07
1.78618e+07
1.78012e+07
1.77439e+07
1.76853e+07
1.76259e+07
1.75662e+07
1.75068e+07
1.74482e+07
1.73909e+07
1.73356e+07
1.72829e+07
1.72338e+07
1.71726e+07
1.70798e+07
1.69921e+07
1.6909e+07
1.68305e+07
1.67562e+07
1.66861e+07
1.66198e+07
1.65573e+07
1.64983e+07
1.63994e+07
1.59639e+07
1.5531e+07
1.51001e+07
1.46706e+07
1.42417e+07
1.38123e+07
1.33812e+07
1.29466e+07
1.25066e+07
1.20597e+07
1.20191e+07
1.19934e+07
1.19645e+07
1.19333e+07
1.19007e+07
1.18676e+07
1.18345e+07
1.18024e+07
1.17724e+07
1.1746e+07
1.17091e+07
1.15553e+07
1.14105e+07
1.12725e+07
1.11387e+07
1.10067e+07
1.08748e+07
1.07412e+07
1.06042e+07
1.0462e+07
1.03127e+07
1.02577e+07
1.02171e+07
1.01704e+07
1.01184e+07
1.0062e+07
1.00015e+07
9.93714e+06
9.86907e+06
9.79728e+06
9.7218e+06
9.65386e+06
9.59121e+06
9.52617e+06
9.45952e+06
9.39196e+06
9.32417e+06
9.25684e+06
9.19069e+06
9.1266e+06
9.06562e+06
9.00905e+06
8.93488e+06
8.80429e+06
8.67937e+06
8.55847e+06
8.43977e+06
8.3213e+06
8.20073e+06
8.0751e+06
7.94057e+06
7.7927e+06
7.65875e+06
7.53534e+06
7.40806e+06
7.28112e+06
7.15706e+06
7.03767e+06
6.92461e+06
6.81987e+06
6.72644e+06
6.64931e+06
6.59721e+06
6.57012e+06
6.12668e+06
5.76299e+06
5.45822e+06
5.19064e+06
4.94421e+06
4.70689e+06
4.46852e+06
4.21945e+06
3.95169e+06
3.9434e+06
3.92761e+06
3.90295e+06
3.87171e+06
3.83549e+06
3.79546e+06
3.75241e+06
3.70692e+06
3.65937e+06
3.60998e+06
3.55884e+06
3.51359e+06
3.4727e+06
3.43098e+06
3.3888e+06
3.34644e+06
3.30412e+06
3.26202e+06
3.22032e+06
3.17916e+06
3.13864e+06
3.0834e+06
2.9941e+06
2.9054e+06
2.81712e+06
2.72898e+06
2.64053e+06
2.55122e+06
2.46034e+06
2.36699e+06
2.27005e+06
2.16823e+06
2.06757e+06
1.96804e+06
1.86514e+06
1.76001e+06
1.65333e+06
1.5456e+06
1.43733e+06
1.32945e+06
1.22394e+06
1.12517e+06
1.01249e+06
865788
740413
630796
532170
441136
355364
273238
193594
115557
38421.8
2.0775e+07
2.07209e+07
2.0667e+07
2.06132e+07
2.05598e+07
2.05068e+07
2.04545e+07
2.04031e+07
2.03531e+07
2.03049e+07
2.02591e+07
2.02007e+07
2.01132e+07
2.0028e+07
1.99442e+07
1.98608e+07
1.97764e+07
1.969e+07
1.95999e+07
1.95046e+07
1.94027e+07
1.93217e+07
1.9251e+07
1.91759e+07
1.90977e+07
1.90176e+07
1.89365e+07
1.8855e+07
1.87738e+07
1.86935e+07
1.8615e+07
1.85393e+07
1.84648e+07
1.8392e+07
1.83229e+07
1.82567e+07
1.81923e+07
1.81289e+07
1.80655e+07
1.80016e+07
1.79363e+07
1.78693e+07
1.78066e+07
1.77472e+07
1.76863e+07
1.76246e+07
1.75625e+07
1.75006e+07
1.74394e+07
1.73796e+07
1.73218e+07
1.72668e+07
1.72154e+07
1.71508e+07
1.70527e+07
1.69601e+07
1.68728e+07
1.67907e+07
1.67136e+07
1.66413e+07
1.65734e+07
1.65098e+07
1.64503e+07
1.63519e+07
1.59189e+07
1.54891e+07
1.50617e+07
1.46359e+07
1.42108e+07
1.37852e+07
1.3358e+07
1.2928e+07
1.24939e+07
1.20553e+07
1.20156e+07
1.19914e+07
1.19642e+07
1.19348e+07
1.1904e+07
1.18726e+07
1.18413e+07
1.18112e+07
1.17833e+07
1.17589e+07
1.17239e+07
1.15755e+07
1.14335e+07
1.12968e+07
1.11637e+07
1.10322e+07
1.09004e+07
1.07666e+07
1.06289e+07
1.04857e+07
1.03357e+07
1.02808e+07
1.02406e+07
1.01941e+07
1.01423e+07
1.00857e+07
1.00247e+07
9.9596e+06
9.89027e+06
9.81668e+06
9.73882e+06
9.66844e+06
9.60333e+06
9.53561e+06
9.46617e+06
9.3958e+06
9.32524e+06
9.25518e+06
9.18639e+06
9.11975e+06
9.05635e+06
8.99738e+06
8.91934e+06
8.78106e+06
8.64854e+06
8.52054e+06
8.39529e+06
8.27073e+06
8.14459e+06
8.01434e+06
7.87734e+06
7.73135e+06
7.60412e+06
7.48942e+06
7.3711e+06