/*--------------------------------*- C++ -*----------------------------------*\
  =========                 |
  \\      /  F ield         | OpenFOAM: The Open Source CFD Toolbox
   \\    /   O peration     | Website:  https://openfoam.org
    \\  /    A nd           | Version:  6
     \\/     M anipulation  |
\*---------------------------------------------------------------------------*/
FoamFile
{
    version     2.0;
    format      ascii;
    class       volVectorField;
    location    "1.5";
    object      U;
}
// * * * * * * * * * * * * * * * * * * * * * * * * * * * * * * * * * * * * * //

dimensions      [0 1 -1 0 0 0 0];

internalField   nonuniform List<vector> 
16000
(
(0.00100017 -1.70692e-07 0)
(0.00100056 -2.15823e-07 0)
(0.00100108 -3.02912e-07 0)
(0.0010018 -4.24212e-07 0)
(0.00100279 -5.64719e-07 0)
(0.00100406 -6.98786e-07 0)
(0.00100554 -7.85026e-07 0)
(0.00100709 -7.62921e-07 0)
(0.0010084 -5.51581e-07 0)
(0.00100901 -5.61649e-08 0)
(0.00100825 8.1669e-07 0)
(0.00100536 2.07621e-06 0)
(0.00099943 3.84931e-06 0)
(0.000989526 6.05472e-06 0)
(0.000974838 8.63338e-06 0)
(0.00095471 1.14953e-05 0)
(0.0009287 1.45147e-05 0)
(0.000896671 1.7514e-05 0)
(0.00085891 2.02469e-05 0)
(0.000816265 2.23981e-05 0)
(0.000770244 2.36226e-05 0)
(0.000739689 6.9329e-06 0)
(0.000726223 6.53293e-06 0)
(0.000714013 5.67684e-06 0)
(0.00070393 4.4068e-06 0)
(0.000696694 2.8288e-06 0)
(0.000692785 1.07985e-06 0)
(0.000692401 -6.95497e-07 0)
(0.000695455 -2.35864e-06 0)
(0.000701602 -3.78813e-06 0)
(0.000710287 -4.89662e-06 0)
(0.000720837 -5.65355e-06 0)
(0.000750597 -2.41066e-05 0)
(0.000798122 -2.34184e-05 0)
(0.000843382 -2.18421e-05 0)
(0.000884903 -1.96783e-05 0)
(0.000921783 -1.72022e-05 0)
(0.000953611 -1.46259e-05 0)
(0.000980332 -1.20947e-05 0)
(0.00100213 -9.70083e-06 0)
(0.00101933 -7.49984e-06 0)
(0.00103235 -5.52182e-06 0)
(0.0010414 -3.52915e-06 0)
(0.00104692 -1.99328e-06 0)
(0.00104956 -6.43985e-07 0)
(0.00104966 5.48015e-07 0)
(0.0010475 1.61124e-06 0)
(0.00104331 2.57114e-06 0)
(0.00103729 3.45181e-06 0)
(0.00102956 4.28072e-06 0)
(0.00102019 5.09277e-06 0)
(0.00100916 5.93017e-06 0)
(0.000996397 6.83546e-06 0)
(0.000983643 5.919e-06 0)
(0.00097073 6.99361e-06 0)
(0.000955621 8.11608e-06 0)
(0.000938261 9.24347e-06 0)
(0.000918691 1.03259e-05 0)
(0.000897049 1.13162e-05 0)
(0.000873559 1.21741e-05 0)
(0.000848517 1.2868e-05 0)
(0.000822275 1.33737e-05 0)
(0.000795227 1.36745e-05 0)
(0.000779935 1.61696e-06 0)
(0.000776638 1.68001e-06 0)
(0.000773237 1.72105e-06 0)
(0.000769773 1.7429e-06 0)
(0.000766283 1.74721e-06 0)
(0.000762804 1.73253e-06 0)
(0.000759379 1.69238e-06 0)
(0.000756072 1.61394e-06 0)
(0.00075298 1.4782e-06 0)
(0.000750239 1.26275e-06 0)
(0.000748029 9.4766e-07 0)
(0.000741738 5.34332e-06 0)
(0.000732171 4.22333e-06 0)
(0.000725443 2.50525e-06 0)
(0.00072259 3.47062e-07 0)
(0.00072431 -2.06711e-06 0)
(0.000730925 -4.54768e-06 0)
(0.000742378 -6.90562e-06 0)
(0.000758238 -8.95444e-06 0)
(0.000777713 -1.05205e-05 0)
(0.000799704 -1.14697e-05 0)
(0.000819095 -7.9213e-06 0)
(0.000834793 -7.77679e-06 0)
(0.00084988 -7.31084e-06 0)
(0.000863833 -6.64151e-06 0)
(0.000876351 -5.87681e-06 0)
(0.000887328 -5.10018e-06 0)
(0.000896798 -4.37017e-06 0)
(0.000904896 -3.72704e-06 0)
(0.000911822 -3.19937e-06 0)
(0.000917827 -2.80591e-06 0)
(0.000923185 -2.55132e-06 0)
(0.000930946 -5.21017e-06 0)
(0.000941437 -5.2811e-06 0)
(0.000952196 -5.47757e-06 0)
(0.000963382 -5.70817e-06 0)
(0.000974981 -5.89125e-06 0)
(0.000986841 -5.96901e-06 0)
(0.000998722 -5.91206e-06 0)
(0.00101035 -5.71709e-06 0)
(0.00102147 -5.40041e-06 0)
(0.00103186 -4.98887e-06 0)
(0.00104189 -5.04631e-06 0)
(0.00105145 -4.51467e-06 0)
(0.00105991 -3.94105e-06 0)
(0.00106718 -3.32798e-06 0)
(0.00107318 -2.67067e-06 0)
(0.0010778 -1.95445e-06 0)
(0.00108091 -1.14897e-06 0)
(0.00108226 -2.01244e-07 0)
(0.00108149 9.68262e-07 0)
(0.00107806 2.46171e-06 0)
(0.00107121 4.38765e-06 0)
(0.00106123 5.5943e-06 0)
(0.00104715 8.48172e-06 0)
(0.00102687 1.17998e-05 0)
(0.00099958 1.5491e-05 0)
(0.000964635 1.94535e-05 0)
(0.000921651 2.35306e-05 0)
(0.000870633 2.74873e-05 0)
(0.000812159 3.09871e-05 0)
(0.000747579 3.35924e-05 0)
(0.000679166 3.48209e-05 0)
(0.000638567 5.77813e-06 0)
(0.000627909 4.8803e-06 0)
(0.000619493 3.53494e-06 0)
(0.000614212 1.7462e-06 0)
(0.000612854 -3.875e-07 0)
(0.00061594 -2.6992e-06 0)
(0.000623615 -4.97588e-06 0)
(0.000635568 -6.97658e-06 0)
(0.000651004 -8.4591e-06 0)
(0.000668691 -9.22879e-06 0)
(0.000687128 -9.20802e-06 0)
(0.00071862 -2.22841e-05 0)
(0.000761067 -2.01631e-05 0)
(0.00079834 -1.71098e-05 0)
(0.000829072 -1.36223e-05 0)
(0.00085278 -1.00855e-05 0)
(0.000869599 -6.73326e-06 0)
(0.000880009 -3.67692e-06 0)
(0.000884642 -9.5637e-07 0)
(0.000884182 1.41641e-06 0)
(0.000879328 3.4376e-06 0)
(0.00086457 1.1321e-05 0)
(0.000841057 1.21918e-05 0)
(0.000816462 1.24029e-05 0)
(0.000791894 1.21658e-05 0)
(0.000768031 1.16967e-05 0)
(0.00074516 1.11745e-05 0)
(0.000723264 1.07213e-05 0)
(0.000702143 1.03997e-05 0)
(0.000681522 1.0221e-05 0)
(0.000661142 1.01593e-05 0)
(0.000640814 1.01684e-05 0)
(0.000622096 8.54996e-06 0)
(0.000604963 8.58317e-06 0)
(0.000587768 8.61157e-06 0)
(0.000570506 8.65026e-06 0)
(0.000553134 8.72225e-06 0)
(0.000535562 8.84958e-06 0)
(0.000517664 9.04865e-06 0)
(0.000499286 9.32924e-06 0)
(0.000480261 9.69613e-06 0)
(0.000460412 1.01522e-05 0)
(0.000445801 4.45938e-06 0)
(0.000436288 5.05315e-06 0)
(0.000425533 5.70146e-06 0)
(0.000413418 6.41353e-06 0)
(0.000399813 7.1915e-06 0)
(0.000384599 8.02299e-06 0)
(0.000367704 8.87227e-06 0)
(0.00034916 9.67161e-06 0)
(0.000329172 1.03164e-05 0)
(0.000308185 1.06704e-05 0)
(0.000286925 1.05897e-05 0)
(0.000274015 2.32053e-06 0)
(0.000270136 1.55807e-06 0)
(0.000267912 6.65757e-07 0)
(0.000267557 -3.10808e-07 0)
(0.000269165 -1.29727e-06 0)
(0.000272665 -2.20212e-06 0)
(0.000277796 -2.92948e-06 0)
(0.000284123 -3.39703e-06 0)
(0.000291082 -3.56245e-06 0)
(0.000298096 -3.45164e-06 0)
(0.000345113 -4.35654e-05 0)
(0.000429968 -4.12896e-05 0)
(0.000508761 -3.75026e-05 0)
(0.000579074 -3.28109e-05 0)
(0.000639643 -2.77576e-05 0)
(0.00069013 -2.27297e-05 0)
(0.000730807 -1.79478e-05 0)
(0.000762253 -1.34981e-05 0)
(0.000785126 -9.37417e-06 0)
(0.000800012 -5.51263e-06 0)
(0.000807343 -1.81846e-06 0)
(0.00100013 -4.66738e-07 0)
(0.00100042 -6.05561e-07 0)
(0.00100087 -8.74647e-07 0)
(0.00100154 -1.25329e-06 0)
(0.00100252 -1.70062e-06 0)
(0.00100384 -2.14404e-06 0)
(0.00100548 -2.4636e-06 0)
(0.00100732 -2.47792e-06 0)
(0.00100911 -1.9387e-06 0)
(0.00101038 -5.4588e-07 0)
(0.00101044 2.00334e-06 0)
(0.00100845 5.77511e-06 0)
(0.00100341 1.11156e-05 0)
(0.00099431 1.77909e-05 0)
(0.000980279 2.56169e-05 0)
(0.000960591 3.43283e-05 0)
(0.000934719 4.35641e-05 0)
(0.000902403 5.28085e-05 0)
(0.000863794 6.13223e-05 0)
(0.000819641 6.81212e-05 0)
(0.000771479 7.20817e-05 0)
(0.000739299 2.12091e-05 0)
(0.000724967 2.00549e-05 0)
(0.000711887 1.74445e-05 0)
(0.000701082 1.35284e-05 0)
(0.000693367 8.65735e-06 0)
(0.000689261 3.26598e-06 0)
(0.000688963 -2.19869e-06 0)
(0.000692363 -7.30959e-06 0)
(0.000699064 -1.16854e-05 0)
(0.000708421 -1.50414e-05 0)
(0.000719634 -1.72717e-05 0)
(0.000750839 -7.34539e-05 0)
(0.000800386 -7.11432e-05 0)
(0.000847122 -6.61138e-05 0)
(0.000889543 -5.93473e-05 0)
(0.000926836 -5.1707e-05 0)
(0.000958719 -4.38326e-05 0)
(0.000985257 -3.61466e-05 0)
(0.00100672 -2.89096e-05 0)
(0.00102351 -2.22767e-05 0)
(0.00103607 -1.63333e-05 0)
(0.00104468 -1.03774e-05 0)
(0.00104981 -5.79325e-06 0)
(0.0010521 -1.77479e-06 0)
(0.00105191 1.77273e-06 0)
(0.00104952 4.9372e-06 0)
(0.00104516 7.79268e-06 0)
(0.001039 1.04071e-05 0)
(0.0010312 1.28591e-05 0)
(0.00102184 1.5253e-05 0)
(0.00101091 1.77226e-05 0)
(0.000998305 2.04094e-05 0)
(0.00098572 1.76846e-05 0)
(0.000972927 2.09329e-05 0)
(0.00095787 2.43433e-05 0)
(0.000940471 2.77753e-05 0)
(0.000920764 3.107e-05 0)
(0.000898897 3.40807e-05 0)
(0.000875111 3.66864e-05 0)
(0.000849717 3.87922e-05 0)
(0.000823082 4.0326e-05 0)
(0.000795615 4.12367e-05 0)
(0.000780086 4.87549e-06 0)
(0.000776743 5.06209e-06 0)
(0.0007733 5.18233e-06 0)
(0.0007698 5.24623e-06 0)
(0.000766273 5.26064e-06 0)
(0.000762749 5.22308e-06 0)
(0.00075926 5.11543e-06 0)
(0.000755858 4.89908e-06 0)
(0.000752629 4.51429e-06 0)
(0.000749709 3.88789e-06 0)
(0.000747289 2.95263e-06 0)
(0.000740193 1.67252e-05 0)
(0.000729333 1.32681e-05 0)
(0.000721566 7.95582e-06 0)
(0.000718018 1.29719e-06 0)
(0.000719416 -6.13496e-06 0)
(0.000726087 -1.37657e-05 0)
(0.000737972 -2.1026e-05 0)
(0.000754623 -2.7346e-05 0)
(0.000775198 -3.21785e-05 0)
(0.00079848 -3.50839e-05 0)
(0.000818965 -2.41829e-05 0)
(0.000835403 -2.36518e-05 0)
(0.000851016 -2.21359e-05 0)
(0.000865267 -2.00199e-05 0)
(0.000877892 -1.76423e-05 0)
(0.000888835 -1.52539e-05 0)
(0.000898171 -1.30236e-05 0)
(0.000906066 -1.10657e-05 0)
(0.000912743 -9.46391e-06 0)
(0.000918475 -8.2789e-06 0)
(0.000923572 -7.53183e-06 0)
(0.000931008 -1.54271e-05 0)
(0.00094117 -1.57178e-05 0)
(0.000951769 -1.63986e-05 0)
(0.000962968 -1.71721e-05 0)
(0.00097472 -1.77791e-05 0)
(0.00098682 -1.80417e-05 0)
(0.000998974 -1.78742e-05 0)
(0.00101086 -1.7273e-05 0)
(0.0010222 -1.62961e-05 0)
(0.00103275 -1.50339e-05 0)
(0.0010429 -1.51918e-05 0)
(0.00105256 -1.3586e-05 0)
(0.0010611 -1.18626e-05 0)
(0.00106845 -1.00282e-05 0)
(0.00107455 -8.07091e-06 0)
(0.00107932 -5.95264e-06 0)
(0.00108266 -3.58914e-06 0)
(0.00108437 -8.25509e-07 0)
(0.00108415 2.58085e-06 0)
(0.00108148 6.95263e-06 0)
(0.00107558 1.2643e-05 0)
(0.00106656 1.63413e-05 0)
(0.00105336 2.50145e-05 0)
(0.00103388 3.50262e-05 0)
(0.00100723 4.62017e-05 0)
(0.000972675 5.82458e-05 0)
(0.000929685 7.0712e-05 0)
(0.00087809 8.2919e-05 0)
(0.000818264 9.38559e-05 0)
(0.000751413 0.000102154 0)
(0.000679846 0.000106239 0)
(0.000637121 1.76841e-05 0)
(0.000625665 1.50884e-05 0)
(0.000616359 1.10482e-05 0)
(0.00061029 5.58354e-06 0)
(0.000608408 -9.84491e-07 0)
(0.000611352 -8.13265e-06 0)
(0.000619338 -1.52036e-05 0)
(0.000632085 -2.14479e-05 0)
(0.000648751 -2.60901e-05 0)
(0.000667942 -2.84768e-05 0)
(0.000687865 -2.83194e-05 0)
(0.000721457 -6.8257e-05 0)
(0.000766242 -6.14215e-05 0)
(0.000804881 -5.17638e-05 0)
(0.000836097 -4.09162e-05 0)
(0.000859669 -3.00719e-05 0)
(0.000876008 -1.99039e-05 0)
(0.000885786 -1.0695e-05 0)
(0.000889736 -2.52133e-06 0)
(0.000888576 4.60081e-06 0)
(0.000883031 1.06527e-05 0)
(0.000867122 3.47735e-05 0)
(0.000842139 3.72352e-05 0)
(0.000816436 3.76568e-05 0)
(0.000791187 3.67293e-05 0)
(0.00076704 3.51431e-05 0)
(0.000744185 3.34547e-05 0)
(0.000722489 3.20322e-05 0)
(0.000701643 3.10559e-05 0)
(0.000681282 3.05463e-05 0)
(0.000661089 3.04069e-05 0)
(0.000640859 3.04793e-05 0)
(0.000622164 2.56517e-05 0)
(0.000605025 2.57543e-05 0)
(0.000587835 2.58244e-05 0)
(0.000570617 2.59175e-05 0)
(0.000553333 2.61114e-05 0)
(0.000535888 2.6477e-05 0)
(0.000518143 2.70644e-05 0)
(0.000499933 2.79014e-05 0)
(0.000481083 2.89992e-05 0)
(0.000461418 3.03627e-05 0)
(0.000446944 1.33344e-05 0)
(0.00043753 1.51049e-05 0)
(0.000426894 1.70406e-05 0)
(0.000414908 1.91747e-05 0)
(0.000401423 2.1521e-05 0)
(0.00038628 2.40512e-05 0)
(0.000369352 2.66667e-05 0)
(0.000350604 2.91694e-05 0)
(0.000330171 3.12399e-05 0)
(0.000308458 3.24462e-05 0)
(0.000286221 3.23114e-05 0)
(0.000272629 7.10082e-06 0)
(0.000268481 4.80404e-06 0)
(0.000266043 2.08153e-06 0)
(0.000265594 -9.22524e-07 0)
(0.000267274 -3.97344e-06 0)
(0.000271032 -6.78384e-06 0)
(0.000276601 -9.04824e-06 0)
(0.00028349 -1.04932e-05 0)
(0.000291028 -1.09636e-05 0)
(0.000298493 -1.05304e-05 0)
(0.000347676 -0.000132686 0)
(0.000436031 -0.00012538 0)
(0.000517239 -0.000113412 0)
(0.000588819 -9.87942e-05 0)
(0.000649724 -8.32476e-05 0)
(0.00069994 -6.79432e-05 0)
(0.000740039 -5.3511e-05 0)
(0.000770827 -4.01684e-05 0)
(0.000793111 -2.78602e-05 0)
(0.000807568 -1.63705e-05 0)
(0.000814675 -5.39812e-06 0)
(0.00100003 -6.23872e-07 0)
(0.00100015 -8.64976e-07 0)
(0.00100043 -1.33686e-06 0)
(0.00100098 -2.01353e-06 0)
(0.0010019 -2.84046e-06 0)
(0.00100329 -3.71307e-06 0)
(0.00100521 -4.44735e-06 0)
(0.00100761 -4.74657e-06 0)
(0.00101033 -4.17925e-06 0)
(0.00101295 -2.19202e-06 0)
(0.00101473 1.80574e-06 0)
(0.00101463 8.0669e-06 0)
(0.00101145 1.70472e-05 0)
(0.00100403 2.83766e-05 0)
(0.000991376 4.17148e-05 0)
(0.000972657 5.66369e-05 0)
(0.00094718 7.26048e-05 0)
(0.000914429 8.88338e-05 0)
(0.000874223 0.000104113 0)
(0.000827025 0.000116683 0)
(0.000774356 0.00012435 0)
(0.000738686 3.67904e-05 0)
(0.000722458 3.50333e-05 0)
(0.000707487 3.05177e-05 0)
(0.000695143 2.36049e-05 0)
(0.000686432 1.50062e-05 0)
(0.000681929 5.52546e-06 0)
(0.000681825 -4.05564e-06 0)
(0.000685968 -1.29956e-05 0)
(0.00069387 -2.06024e-05 0)
(0.0007047 -2.63119e-05 0)
(0.000717364 -2.98777e-05 0)
(0.000751665 -0.000126354 0)
(0.000805462 -0.000121587 0)
(0.000855178 -0.000112123 0)
(0.00089931 -9.98899e-05 0)
(0.000937298 -8.64458e-05 0)
(0.000969172 -7.28508e-05 0)
(0.000995255 -5.97497e-05 0)
(0.001016 -4.75144e-05 0)
(0.0010319 -3.63641e-05 0)
(0.00104352 -2.64295e-05 0)
(0.00105121 -1.65817e-05 0)
(0.00105553 -9.02763e-06 0)
(0.00105713 -2.43464e-06 0)
(0.00105637 3.38049e-06 0)
(0.00105352 8.57227e-06 0)
(0.00104878 1.32553e-05 0)
(0.00104236 1.75249e-05 0)
(0.00103441 2.14953e-05 0)
(0.00102505 2.53377e-05 0)
(0.00101432 2.92977e-05 0)
(0.00100209 3.36641e-05 0)
(0.000989897 2.92079e-05 0)
(0.000977389 3.47101e-05 0)
(0.000962463 4.05489e-05 0)
(0.000944988 4.64446e-05 0)
(0.000924997 5.20981e-05 0)
(0.000902666 5.72504e-05 0)
(0.00087827 6.16985e-05 0)
(0.000852157 6.52883e-05 0)
(0.00082472 6.79013e-05 0)
(0.000796399 6.94482e-05 0)
(0.000780384 8.20889e-06 0)
(0.000776945 8.51055e-06 0)
(0.000773421 8.69995e-06 0)
(0.000769852 8.79904e-06 0)
(0.00076626 8.82604e-06 0)
(0.000762658 8.78372e-06 0)
(0.000759055 8.64718e-06 0)
(0.000755471 8.35268e-06 0)
(0.000751969 7.79198e-06 0)
(0.000748678 6.82192e-06 0)
(0.000745815 5.30126e-06 0)
(0.000737002 3.02853e-05 0)
(0.000723402 2.41681e-05 0)
(0.000713472 1.47527e-05 0)
(0.000708499 3.02083e-06 0)
(0.000709247 -1.00043e-05 0)
(0.000716034 -2.33542e-05 0)
(0.000728798 -3.60867e-05 0)
(0.000747086 -4.7225e-05 0)
(0.000769975 -5.57635e-05 0)
(0.000796017 -6.08227e-05 0)
(0.000818845 -4.17564e-05 0)
(0.00083684 -4.05116e-05 0)
(0.000853512 -3.75611e-05 0)
(0.000868326 -3.36598e-05 0)
(0.000881117 -2.94188e-05 0)
(0.000891947 -2.52495e-05 0)
(0.000900987 -2.14047e-05 0)
(0.000908455 -1.80481e-05 0)
(0.000914609 -1.53117e-05 0)
(0.000919759 -1.3314e-05 0)
(0.000924289 -1.21223e-05 0)
(0.000931012 -2.49965e-05 0)
(0.000940466 -2.57642e-05 0)
(0.000950742 -2.72269e-05 0)
(0.000962001 -2.88025e-05 0)
(0.000974111 -3.00112e-05 0)
(0.000986746 -3.05447e-05 0)
(0.000999491 -3.027e-05 0)
(0.00101193 -2.92046e-05 0)
(0.00102371 -2.74771e-05 0)
(0.00103458 -2.52739e-05 0)
(0.00104496 -2.54859e-05 0)
(0.00105478 -2.2775e-05 0)
(0.00106347 -1.98951e-05 0)
(0.00107097 -1.68513e-05 0)
(0.00107725 -1.36321e-05 0)
(0.00108228 -1.0196e-05 0)
(0.00108603 -6.42945e-06 0)
(0.00108843 -2.0925e-06 0)
(0.00108927 3.22804e-06 0)
(0.00108812 1.01249e-05 0)
(0.0010842 1.92895e-05 0)
(0.0010772 2.57144e-05 0)
(0.00106584 4.02089e-05 0)
(0.00104806 5.7089e-05 0)
(0.0010228 7.60436e-05 0)
(0.000989146 9.66162e-05 0)
(0.000946324 0.000118153 0)
(0.000893777 0.000139621 0)
(0.000831394 0.000159364 0)
(0.000759963 0.000174928 0)
(0.000681767 0.000183227 0)
(0.000634487 3.07014e-05 0)
(0.000621273 2.67411e-05 0)
(0.000609989 1.9986e-05 0)
(0.00060218 1.05242e-05 0)
(0.000599137 -1.00136e-06 0)
(0.000601721 -1.36433e-05 0)
(0.0006103 -2.6258e-05 0)
(0.000624681 -3.75214e-05 0)
(0.000643975 -4.59767e-05 0)
(0.000666462 -5.0269e-05 0)
(0.000689682 -4.96698e-05 0)
(0.000727852 -0.000118669 0)
(0.000777561 -0.000105502 0)
(0.000818846 -8.76077e-05 0)
(0.000850764 -6.82068e-05 0)
(0.000873793 -4.93819e-05 0)
(0.000888976 -3.21155e-05 0)
(0.000897392 -1.66778e-05 0)
(0.000899938 -3.03479e-06 0)
(0.000897356 8.85548e-06 0)
(0.000890376 1.89235e-05 0)
(0.000872028 6.07603e-05 0)
(0.00084394 6.43188e-05 0)
(0.000815956 6.42598e-05 0)
(0.00078938 6.19515e-05 0)
(0.000764757 5.86918e-05 0)
(0.000742049 5.54689e-05 0)
(0.000720865 5.2897e-05 0)
(0.000700657 5.12455e-05 0)
(0.000680873 5.05014e-05 0)
(0.000661075 5.04427e-05 0)
(0.000641018 5.07316e-05 0)
(0.00062233 4.27817e-05 0)
(0.000605136 4.29581e-05 0)
(0.000587931 4.30143e-05 0)
(0.000570793 4.30839e-05 0)
(0.000553693 4.33288e-05 0)
(0.000536515 4.38826e-05 0)
(0.000519088 4.48306e-05 0)
(0.000501221 4.62129e-05 0)
(0.000482722 4.80365e-05 0)
(0.000463416 5.02958e-05 0)
(0.000449212 2.20797e-05 0)
(0.000439994 2.49915e-05 0)
(0.000429603 2.81814e-05 0)
(0.000417899 3.17235e-05 0)
(0.00040469 3.56666e-05 0)
(0.000389745 3.9994e-05 0)
(0.000372822 4.45741e-05 0)
(0.000353733 4.90993e-05 0)
(0.000332449 5.30276e-05 0)
(0.000309256 5.55629e-05 0)
(0.000284941 5.57479e-05 0)
(0.000269868 1.23285e-05 0)
(0.000265117 8.47575e-06 0)
(0.000262186 3.77884e-06 0)
(0.000261502 -1.48738e-06 0)
(0.000263304 -6.89012e-06 0)
(0.00026759 -1.19116e-05 0)
(0.000274087 -1.59864e-05 0)
(0.000282207 -1.85641e-05 0)
(0.000291045 -1.92682e-05 0)
(0.000299525 -1.81712e-05 0)
(0.000353415 -0.000228117 0)
(0.000449242 -0.000214132 0)
(0.000535346 -0.000191973 0)
(0.000609239 -0.000165706 0)
(0.000670494 -0.000138495 0)
(0.000719867 -0.000112284 0)
(0.000758582 -8.79848e-05 0)
(0.000787904 -6.58044e-05 0)
(0.000808923 -4.55276e-05 0)
(0.000822474 -2.67112e-05 0)
(0.000829112 -8.80161e-06 0)
(0.000999884 -5.39997e-07 0)
(0.000999712 -8.93676e-07 0)
(0.000999719 -1.59435e-06 0)
(0.00100004 -2.62358e-06 0)
(0.00100082 -3.93462e-06 0)
(0.00100223 -5.42064e-06 0)
(0.00100444 -6.86606e-06 0)
(0.00100759 -7.88187e-06 0)
(0.00101166 -7.83976e-06 0)
(0.00101636 -5.84865e-06 0)
(0.00102091 -8.61023e-07 0)
(0.0010239 7.84511e-06 0)
(0.00102372 2.06296e-05 0)
(0.00101898 3.69535e-05 0)
(0.00100854 5.62288e-05 0)
(0.000991481 7.78997e-05 0)
(0.000966915 0.000101384 0)
(0.000933911 0.000125809 0)
(0.000891643 0.000149612 0)
(0.000839878 0.000170146 0)
(0.000779853 0.000183581 0)
(0.000738248 5.48344e-05 0)
(0.000718694 5.277e-05 0)
(0.000700459 4.59884e-05 0)
(0.00068557 3.53671e-05 0)
(0.000675288 2.22373e-05 0)
(0.000670199 7.88522e-06 0)
(0.000670441 -6.55371e-06 0)
(0.000675816 -2.00149e-05 0)
(0.000685748 -3.14168e-05 0)
(0.000699146 -3.97261e-05 0)
(0.00071436 -4.43413e-05 0)
(0.000753899 -0.000185731 0)
(0.000814618 -0.000176727 0)
(0.000868819 -0.000160901 0)
(0.00091522 -0.000141644 0)
(0.000953875 -0.000121336 0)
(0.000985415 -0.000101375 0)
(0.00101059 -8.2487e-05 0)
(0.00103011 -6.50339e-05 0)
(0.00104459 -4.92357e-05 0)
(0.00105468 -3.5267e-05 0)
(0.00106091 -2.16643e-05 0)
(0.00106396 -1.1301e-05 0)
(0.00106451 -2.3165e-06 0)
(0.00106292 5.61164e-06 0)
(0.0010594 1.27161e-05 0)
(0.00105411 1.91312e-05 0)
(0.00104724 2.49419e-05 0)
(0.00103901 3.02597e-05 0)
(0.00102964 3.53047e-05 0)
(0.00101923 4.04663e-05 0)
(0.00100767 4.62819e-05 0)
(0.000996225 4.02325e-05 0)
(0.000984268 4.81507e-05 0)
(0.000969605 5.66978e-05 0)
(0.00095202 6.53559e-05 0)
(0.00093157 7.36275e-05 0)
(0.000908498 8.11242e-05 0)
(0.000883149 8.75688e-05 0)
(0.000855919 9.27614e-05 0)
(0.000827242 9.65428e-05 0)
(0.000797593 9.87763e-05 0)
(0.000780818 1.1671e-05 0)
(0.000777234 1.20713e-05 0)
(0.000773589 1.23079e-05 0)
(0.000769926 1.24239e-05 0)
(0.000766258 1.24608e-05 0)
(0.00076257 1.24386e-05 0)
(0.000758829 1.23369e-05 0)
(0.000755003 1.20725e-05 0)
(0.000751098 1.14791e-05 0)
(0.000747218 1.03065e-05 0)
(0.00074362 8.27727e-06 0)
(0.000731928 4.78145e-05 0)
(0.0007138 3.83665e-05 0)
(0.000700419 2.3866e-05 0)
(0.000693261 6.03765e-06 0)
(0.000693041 -1.35487e-05 0)
(0.000700004 -3.35601e-05 0)
(0.000714101 -5.27414e-05 0)
(0.000734947 -6.9704e-05 0)
(0.0007616 -8.28277e-05 0)
(0.000792276 -9.04757e-05 0)
(0.000819065 -6.17196e-05 0)
(0.000839598 -5.90772e-05 0)
(0.000857867 -5.39372e-05 0)
(0.000873409 -4.76395e-05 0)
(0.000886303 -4.11234e-05 0)
(0.000896849 -3.49206e-05 0)
(0.000905373 -2.92975e-05 0)
(0.000912159 -2.44103e-05 0)
(0.000917477 -2.0421e-05 0)
(0.000921665 -1.75429e-05 0)
(0.000925215 -1.59729e-05 0)
(0.000930692 -3.33462e-05 0)
(0.000938939 -3.51155e-05 0)
(0.000948731 -3.79425e-05 0)
(0.000960184 -4.07996e-05 0)
(0.000972978 -4.29187e-05 0)
(0.000986562 -4.38558e-05 0)
(0.00100031 -4.34563e-05 0)
(0.00101366 -4.17983e-05 0)
(0.00102613 -3.91337e-05 0)
(0.00103745 -3.58111e-05 0)
(0.00104811 -3.59905e-05 0)
(0.00105815 -3.2133e-05 0)
(0.00106702 -2.80915e-05 0)
(0.00107471 -2.38496e-05 0)
(0.00108121 -1.94104e-05 0)
(0.00108653 -1.477e-05 0)
(0.00109076 -9.8401e-06 0)
(0.00109403 -4.34307e-06 0)
(0.00109637 2.29891e-06 0)
(0.00109754 1.10294e-05 0)
(0.00109677 2.30744e-05 0)
(0.00109308 3.26192e-05 0)
(0.00108473 5.30179e-05 0)
(0.00106971 7.7077e-05 0)
(0.00104676 0.000104268 0)
(0.00101478 0.000134023 0)
(0.00097269 0.000165662 0)
(0.000919301 0.000198048 0)
(0.000853572 0.000229049 0)
(0.000775277 0.000254968 0)
(0.00068628 0.00027038 0)
(0.000631295 4.58135e-05 0)
(0.00061495 4.11886e-05 0)
(0.000600142 3.16303e-05 0)
(0.000589302 1.75287e-05 0)
(0.000584241 9.81088e-08 0)
(0.000586095 -1.91811e-05 0)
(0.00059546 -3.86638e-05 0)
(0.000612366 -5.64028e-05 0)
(0.000636004 -7.00264e-05 0)
(0.000664249 -7.69526e-05 0)
(0.000693398 -7.53547e-05 0)
(0.000739558 -0.000177315 0)
(0.000797303 -0.000154309 0)
(0.000842176 -0.000124958 0)
(0.000874323 -9.49213e-05 0)
(0.000895761 -6.71334e-05 0)
(0.000908712 -4.24984e-05 0)
(0.000914867 -2.08658e-05 0)
(0.000915269 -1.79557e-06 0)
(0.000910535 1.49324e-05 0)
(0.000901273 2.90884e-05 0)
(0.000878854 9.13626e-05 0)
(0.000845638 9.50198e-05 0)
(0.000814069 9.31122e-05 0)
(0.000785619 8.81249e-05 0)
(0.000760557 8.22037e-05 0)
(0.00073839 7.68323e-05 0)
(0.000718266 7.28413e-05 0)
(0.000699247 7.05276e-05 0)
(0.000680479 6.97711e-05 0)
(0.00066132 7.0131e-05 0)
(0.000641459 7.09612e-05 0)
(0.000622652 6.00471e-05 0)
(0.000605257 6.02819e-05 0)
(0.000587961 6.01906e-05 0)
(0.000570932 6.00751e-05 0)
(0.000554132 6.02375e-05 0)
(0.00053739 6.08938e-05 0)
(0.000520474 6.21627e-05 0)
(0.000503139 6.40829e-05 0)
(0.000485166 6.6638e-05 0)
(0.00046638 6.97855e-05 0)
(0.000452559 3.0616e-05 0)
(0.000443632 3.46e-05 0)
(0.000433626 3.897e-05 0)
(0.000422394 4.38715e-05 0)
(0.000409693 4.94277e-05 0)
(0.000395187 5.56842e-05 0)
(0.000378458 6.25364e-05 0)
(0.000359057 6.96261e-05 0)
(0.000336634 7.62083e-05 0)
(0.000311179 8.103e-05 0)
(0.000283413 8.23622e-05 0)
(0.000265783 1.84161e-05 0)
(0.000259932 1.29917e-05 0)
(0.00025608 6.04545e-06 0)
(0.000254925 -1.9157e-06 0)
(0.00025685 -1.01881e-05 0)
(0.000261936 -1.79859e-05 0)
(0.000269949 -2.44217e-05 0)
(0.000280208 -2.85085e-05 0)
(0.000291421 -2.9374e-05 0)
(0.000301763 -2.68878e-05 0)
(0.000363834 -0.000335361 0)
(0.000472176 -0.000311057 0)
(0.000565665 -0.000274642 0)
(0.000642297 -0.00023356 0)
(0.000703145 -0.000192744 0)
(0.00075045 -0.000154714 0)
(0.000786519 -0.00012034 0)
(0.000813284 -8.95367e-05 0)
(0.000832204 -6.17345e-05 0)
(0.000844294 -3.61451e-05 0)
(0.000850187 -1.18987e-05 0)
(0.000999678 -1.02478e-07 0)
(0.000999095 -5.75439e-07 0)
(0.000998698 -1.52338e-06 0)
(0.000998637 -2.95186e-06 0)
(0.000999104 -4.85373e-06 0)
(0.00100036 -7.16882e-06 0)
(0.00100274 -9.71443e-06 0)
(0.00100664 -1.2075e-05 0)
(0.00101237 -1.34493e-05 0)
(0.00101993 -1.25019e-05 0)
(0.00102857 -7.39354e-06 0)
(0.00103627 3.69241e-06 0)
(0.00104055 2.06723e-05 0)
(0.00103963 4.2579e-05 0)
(0.00103232 6.83471e-05 0)
(0.00101781 9.73486e-05 0)
(0.000995089 0.000129224 0)
(0.000962657 0.000163406 0)
(0.00091856 0.000198382 0)
(0.000860994 0.000230707 0)
(0.00078998 0.00025406 0)
(0.000738809 7.71309e-05 0)
(0.000713612 7.52239e-05 0)
(0.000690084 6.52987e-05 0)
(0.000671391 4.9638e-05 0)
(0.00065895 3.06906e-05 0)
(0.000653138 1.03317e-05 0)
(0.000653925 -1.00295e-05 0)
(0.000661105 -2.90935e-05 0)
(0.000674159 -4.53236e-05 0)
(0.000691776 -5.68344e-05 0)
(0.000711325 -6.19968e-05 0)
(0.000759246 -0.000255535 0)
(0.000830292 -0.000238688 0)
(0.000890261 -0.000213109 0)
(0.000938875 -0.000184449 0)
(0.000977567 -0.000155878 0)
(0.00100802 -0.000128826 0)
(0.0010316 -0.000103789 0)
(0.00104925 -8.08988e-05 0)
(0.00106167 -6.02776e-05 0)
(0.00106954 -4.21879e-05 0)
(0.00107363 -2.50581e-05 0)
(0.00107487 -1.21954e-05 0)
(0.00107404 -1.14197e-06 0)
(0.0010714 8.66638e-06 0)
(0.00106704 1.75492e-05 0)
(0.00106101 2.56115e-05 0)
(0.00105349 3.28519e-05 0)
(0.00104477 3.92967e-05 0)
(0.00103526 4.51552e-05 0)
(0.0010253 5.0981e-05 0)
(0.00101487 5.77465e-05 0)
(0.00100478 5.03078e-05 0)
(0.000993854 6.09623e-05 0)
(0.000979668 7.27356e-05 0)
(0.000961917 8.46539e-05 0)
(0.000940765 9.59317e-05 0)
(0.000916607 0.00010605 0)
(0.000889908 0.000114691 0)
(0.000861131 0.000121646 0)
(0.000830735 0.000126732 0)
(0.000799223 0.000129747 0)
(0.000781374 1.53234e-05 0)
(0.000777582 1.57956e-05 0)
(0.000773774 1.60364e-05 0)
(0.000770005 1.61281e-05 0)
(0.000766275 1.61545e-05 0)
(0.000762534 1.6173e-05 0)
(0.000758689 1.61893e-05 0)
(0.000754613 1.61212e-05 0)
(0.000750203 1.57453e-05 0)
(0.000745476 1.4648e-05 0)
(0.000740736 1.22729e-05 0)
(0.000724505 7.17428e-05 0)
(0.000699453 5.76171e-05 0)
(0.000681143 3.63073e-05 0)
(0.000671085 1.08124e-05 0)
(0.00066965 -1.6668e-05 0)
(0.000676841 -4.45961e-05 0)
(0.000692654 -7.1615e-05 0)
(0.000717 -9.60219e-05 0)
(0.000749204 -0.000115368 0)
(0.000787157 -0.000126565 0)
(0.000820275 -8.55374e-05 0)
(0.000844622 -8.01404e-05 0)
(0.00086495 -7.14709e-05 0)
(0.00088114 -6.18375e-05 0)
(0.000893836 -5.25146e-05 0)
(0.000903773 -4.40121e-05 0)
(0.000911497 -3.64545e-05 0)
(0.000917332 -2.98747e-05 0)
(0.000921476 -2.4419e-05 0)
(0.000924207 -2.04636e-05 0)
(0.000926152 -1.85469e-05 0)
(0.000929537 -3.96334e-05 0)
(0.00093587 -4.34089e-05 0)
(0.000945057 -4.86281e-05 0)
(0.000957025 -5.35347e-05 0)
(0.000971055 -5.7008e-05 0)
(0.000986208 -5.85034e-05 0)
(0.00100155 -5.79013e-05 0)
(0.00101625 -5.53986e-05 0)
(0.0010297 -5.14483e-05 0)
(0.00104156 -4.66834e-05 0)
(0.00105247 -4.66949e-05 0)
(0.00106268 -4.16748e-05 0)
(0.00107175 -3.64882e-05 0)
(0.00107965 -3.10452e-05 0)
(0.00108633 -2.53898e-05 0)
(0.00109185 -1.96333e-05 0)
(0.00109646 -1.38179e-05 0)
(0.00110057 -7.73857e-06 0)
(0.00110464 -7.18738e-07 0)
(0.0011089 8.61946e-06 0)
(0.00111274 2.24041e-05 0)
(0.0011141 3.56256e-05 0)
(0.00111029 6.21664e-05 0)
(0.00109931 9.39335e-05 0)
(0.00107974 0.000129928 0)
(0.00105054 0.000169545 0)
(0.00101035 0.000212424 0)
(0.000957165 0.000257859 0)
(0.000888315 0.000303818 0)
(0.000801294 0.000345516 0)
(0.000696173 0.000373951 0)
(0.000628856 6.45442e-05 0)
(0.00060709 6.05696e-05 0)
(0.000586329 4.7818e-05 0)
(0.000570647 2.78622e-05 0)
(0.000562428 3.04616e-06 0)
(0.000562959 -2.45154e-05 0)
(0.000573078 -5.28133e-05 0)
(0.000593319 -7.93996e-05 0)
(0.000623425 -0.000100773 0)
(0.000661134 -0.00011216 0)
(0.000700662 -0.000108824 0)
(0.00076024 -0.000249584 0)
(0.000829917 -0.000209462 0)
(0.000878234 -0.000162995 0)
(0.000908589 -0.000119387 0)
(0.000926215 -8.17319e-05 0)
(0.000935243 -4.9879e-05 0)
(0.000938095 -2.24915e-05 0)
(0.000935736 1.7859e-06 0)
(0.00092824 2.35813e-05 0)
(0.000915686 4.22558e-05 0)
(0.000886838 0.000129461 0)
(0.00084569 0.000131285 0)
(0.000809062 0.000125044 0)
(0.000778472 0.000115232 0)
(0.000753464 0.000105166 0)
(0.000732687 9.68151e-05 0)
(0.000714561 9.11084e-05 0)
(0.000697587 8.82525e-05 0)
(0.000680477 8.79245e-05 0)
(0.000662265 8.93488e-05 0)
(0.00064251 9.13594e-05 0)
(0.000623226 7.77394e-05 0)
(0.000605279 7.79317e-05 0)
(0.000587725 7.73912e-05 0)
(0.00057084 7.67883e-05 0)
(0.000554512 7.66521e-05 0)
(0.00053844 7.72925e-05 0)
(0.000522277 7.88433e-05 0)
(0.000505696 8.1318e-05 0)
(0.000488424 8.46472e-05 0)
(0.00047028 8.87062e-05 0)
(0.000456912 3.88847e-05 0)
(0.000448348 4.38225e-05 0)
(0.000438875 4.92271e-05 0)
(0.000428356 5.53648e-05 0)
(0.000416503 6.24887e-05 0)
(0.000402853 7.07787e-05 0)
(0.000386764 8.0261e-05 0)
(0.000367405 9.06605e-05 0)
(0.000343852 0.000101149 0)
(0.00031541 0.000109987 0)
(0.00028237 0.000114212 0)
(0.000260541 2.6025e-05 0)
(0.000252746 1.90293e-05 0)
(0.000247278 9.327e-06 0)
(0.000245269 -2.03277e-06 0)
(0.000247234 -1.39608e-05 0)
(0.000253356 -2.5422e-05 0)
(0.000263564 -3.52062e-05 0)
(0.000277255 -4.16743e-05 0)
(0.000292666 -4.28314e-05 0)
(0.000306402 -3.75095e-05 0)
(0.00038211 -0.000462517 0)
(0.000509961 -0.000420094 0)
(0.000612843 -0.000361977 0)
(0.000691137 -0.00030115 0)
(0.00074934 -0.000244206 0)
(0.000792271 -0.000193487 0)
(0.000823759 -0.000149123 0)
(0.000846509 -0.000110268 0)
(0.000862315 -7.57285e-05 0)
(0.00087231 -4.42361e-05 0)
(0.000877156 -1.45468e-05 0)
(0.000999411 8.08038e-07 0)
(0.000998291 2.17743e-07 0)
(0.000997343 -9.71736e-07 0)
(0.000996707 -2.8068e-06 0)
(0.000996601 -5.35949e-06 0)
(0.000997368 -8.68639e-06 0)
(0.000999535 -1.2748e-05 0)
(0.00100385 -1.72543e-05 0)
(0.00101124 -2.13806e-05 0)
(0.00102242 -2.3316e-05 0)
(0.00103703 -1.98323e-05 0)
(0.00105189 -6.42561e-06 0)
(0.00106261 1.57885e-05 0)
(0.00106665 4.43431e-05 0)
(0.00106331 7.72322e-05 0)
(0.00105236 0.000113923 0)
(0.00103297 0.000154759 0)
(0.00100307 0.000200207 0)
(0.000958944 0.000249802 0)
(0.000895557 0.000300239 0)
(0.000808979 0.000342119 0)
(0.000742114 0.000107107 0)
(0.000706862 0.000105696 0)
(0.000674873 9.03446e-05 0)
(0.000650962 6.71954e-05 0)
(0.000635981 4.05555e-05 0)
(0.000629479 1.27806e-05 0)
(0.000631016 -1.48025e-05 0)
(0.000640522 -4.1006e-05 0)
(0.000658007 -6.39498e-05 0)
(0.000682473 -8.02911e-05 0)
(0.000709783 -8.54004e-05 0)
(0.000771332 -0.000341601 0)
(0.000857044 -0.000309381 0)
(0.000923058 -0.0002684 0)
(0.000972451 -0.000227165 0)
(0.0010095 -0.0001889 0)
(0.0010375 -0.000154263 0)
(0.00105852 -0.000122946 0)
(0.00107362 -9.44944e-05 0)
(0.0010833 -6.87879e-05 0)
(0.00108807 -4.63178e-05 0)
(0.00108907 -2.60159e-05 0)
(0.00108787 -1.12806e-05 0)
(0.00108537 1.27759e-06 0)
(0.00108161 1.26467e-05 0)