/*--------------------------------*- C++ -*----------------------------------*\
  =========                 |
  \\      /  F ield         | OpenFOAM: The Open Source CFD Toolbox
   \\    /   O peration     | Website:  https://openfoam.org
    \\  /    A nd           | Version:  7
     \\/     M anipulation  |
\*---------------------------------------------------------------------------*/
FoamFile
{
    version     2.0;
    format      ascii;
    class       volVectorField;
    location    "0.03";
    object      U;
}
// * * * * * * * * * * * * * * * * * * * * * * * * * * * * * * * * * * * * * //

dimensions      [0 1 -1 0 0 0 0];

internalField   nonuniform List<vector> 
20000
(
(7.29387e-06 0 4.52638e-08)
(7.21899e-06 -1.83444e-20 1.04484e-07)
(7.10627e-06 0 1.20965e-07)
(6.98494e-06 1.69424e-20 1.21684e-07)
(6.86549e-06 1.70131e-20 1.17214e-07)
(6.75089e-06 0 1.11986e-07)
(6.64098e-06 0 1.07835e-07)
(6.53444e-06 1.61577e-20 1.05246e-07)
(6.42991e-06 -8.92298e-22 1.03818e-07)
(6.32672e-06 0 1.02556e-07)
(6.22541e-06 0 1.00073e-07)
(6.12796e-06 1.70209e-21 9.48139e-08)
(6.0379e-06 0 8.53133e-08)
(5.96002e-06 0 7.04459e-08)
(5.9e-06 0 4.96039e-08)
(5.86379e-06 0 2.28117e-08)
(5.85701e-06 1.62487e-21 -9.2608e-09)
(5.88432e-06 3.26337e-21 -4.53564e-08)
(5.94886e-06 1.64887e-21 -8.37298e-08)
(6.05183e-06 0 -1.22204e-07)
(6.19209e-06 0 -1.5831e-07)
(6.36598e-06 -3.52708e-21 -1.8948e-07)
(6.56731e-06 0 -2.13169e-07)
(6.78746e-06 -1.08074e-20 -2.27142e-07)
(7.01593e-06 -3.89158e-21 -2.29784e-07)
(7.24103e-06 0 -2.20421e-07)
(7.45104e-06 0 -1.99608e-07)
(7.63546e-06 0 -1.6923e-07)
(7.78627e-06 1.44682e-20 -1.32392e-07)
(7.89901e-06 0 -9.30741e-08)
(7.97332e-06 0 -5.55467e-08)
(8.01294e-06 0 -2.37038e-08)
(8.02503e-06 0 -4.6876e-10)
(8.01893e-06 0 1.26597e-08)
(8.00474e-06 2.12021e-20 1.5733e-08)
(7.99175e-06 0 1.02424e-08)
(7.98722e-06 0 -1.1857e-09)
(7.99542e-06 0 -1.52143e-08)
(8.01714e-06 0 -2.82312e-08)
(8.04966e-06 -4.46131e-21 -3.6792e-08)
(8.08705e-06 2.02551e-20 -3.79987e-08)
(8.121e-06 0 -2.98936e-08)
(8.14185e-06 -4.52171e-21 -1.1811e-08)
(8.14005e-06 -4.52466e-21 1.54136e-08)
(8.10768e-06 0 4.93233e-08)
(8.04004e-06 0 8.59662e-08)
(7.93685e-06 -8.83744e-21 1.20406e-07)
(7.80291e-06 0 1.47473e-07)
(7.64787e-06 0 1.62613e-07)
(7.48518e-06 4.16226e-21 1.6275e-07)
(7.33041e-06 0 1.46797e-07)
(7.19913e-06 0 1.15774e-07)
(7.10494e-06 0 7.26078e-08)
(7.05781e-06 -7.82131e-21 2.16513e-08)
(7.0629e-06 -7.82237e-21 -3.18416e-08)
(7.11993e-06 0 -8.22236e-08)
(7.22298e-06 8.46206e-21 -1.23865e-07)
(7.3607e-06 0 -1.51582e-07)
(7.51707e-06 0 -1.61149e-07)
(7.67258e-06 0 -1.4987e-07)
(7.80613e-06 -8.66793e-21 -1.17231e-07)
(7.89746e-06 1.75568e-20 -6.54281e-08)
(7.92993e-06 0 4.86915e-10)
(7.89318e-06 -8.78644e-21 7.29989e-08)
(7.78519e-06 0 1.43e-07)
(7.61306e-06 0 2.01259e-07)
(7.39245e-06 0 2.39946e-07)
(7.14551e-06 -1.58802e-20 2.53935e-07)
(6.89779e-06 -7.65604e-21 2.41518e-07)
(6.67492e-06 0 2.0421e-07)
(6.49978e-06 6.02541e-21 1.46072e-07)
(6.39037e-06 1.31144e-21 7.27549e-08)
(6.35866e-06 0 -9.34133e-09)
(6.41012e-06 0 -9.3582e-08)
(6.54356e-06 5.48931e-21 -1.73285e-07)
(6.7511e-06 9.34716e-21 -2.41805e-07)
(7.01839e-06 0 -2.92769e-07)
(7.32507e-06 0 -3.20599e-07)
(7.64605e-06 6.30396e-21 -3.21349e-07)
(7.95353e-06 2.22554e-21 -2.93613e-07)
(8.21996e-06 9.14666e-21 -2.39245e-07)
(8.42137e-06 -2.25942e-21 -1.63578e-07)
(8.54059e-06 0 -7.48771e-08)
(8.56963e-06 0 1.6804e-08)
(8.51064e-06 0 1.01176e-07)
(8.37538e-06 0 1.69335e-07)
(8.18316e-06 0 2.15113e-07)
(7.95771e-06 0 2.35778e-07)
(7.72378e-06 0 2.32098e-07)
(7.50383e-06 0 2.07785e-07)
(7.31567e-06 1.62081e-20 1.68552e-07)
(7.17081e-06 0 1.21153e-07)
(7.07398e-06 0 7.25219e-08)
(7.02315e-06 0 2.9133e-08)
(7.01033e-06 0 -3.48802e-09)
(7.02265e-06 2.01348e-20 -2.11671e-08)
(7.04397e-06 3.29284e-21 -2.14745e-08)
(7.05673e-06 0 -4.04677e-09)
(7.04412e-06 0 2.92715e-08)
(6.99221e-06 -3.40766e-21 7.4549e-08)
(6.89182e-06 1.1088e-20 1.26238e-07)
(6.73972e-06 -1.09093e-20 1.77958e-07)
(6.53902e-06 0 2.23451e-07)
(6.29853e-06 -1.03385e-20 2.57525e-07)
(6.03139e-06 9.97363e-21 2.7676e-07)
(5.75308e-06 -2.23491e-20 2.7986e-07)
(5.47936e-06 1.21469e-20 2.67573e-07)
(5.22444e-06 -8.81452e-21 2.42275e-07)
(4.99962e-06 8.47804e-21 2.07351e-07)
(4.81266e-06 -8.19328e-21 1.66569e-07)
(4.66759e-06 0 1.23567e-07)
(4.56505e-06 2.29727e-21 8.15235e-08)
(4.50279e-06 -9.96809e-21 4.29931e-08)
(4.47637e-06 7.65102e-21 9.84006e-09)
(4.47983e-06 2.28378e-21 -1.67588e-08)
(4.50636e-06 -9.99393e-21 -3.62975e-08)
(4.54897e-06 -7.72365e-21 -4.89208e-08)
(4.60111e-06 -2.42714e-21 -5.53657e-08)
(4.65723e-06 2.48303e-21 -5.68602e-08)
(4.71315e-06 0 -5.49883e-08)
(4.76639e-06 2.57714e-21 -5.14899e-08)
(4.81615e-06 8.09492e-21 -4.80303e-08)
(4.86315e-06 -8.17634e-21 -4.59776e-08)
(4.90925e-06 -1.09082e-20 -4.6206e-08)
(4.95683e-06 -8.36397e-21 -4.89632e-08)
(5.00823e-06 8.4776e-21 -5.38423e-08)
(5.06508e-06 -8.60749e-21 -5.98578e-08)
(5.12783e-06 -1.1386e-20 -6.56313e-08)
(5.19548e-06 -8.91173e-21 -6.9674e-08)
(5.26567e-06 -2.61466e-21 -7.07094e-08)
(5.33502e-06 1.44508e-20 -6.79859e-08)
(5.39976e-06 0 -6.1502e-08)
(5.45656e-06 -9.54175e-21 -5.20843e-08)
(5.50324e-06 9.66318e-21 -4.12813e-08)
(5.53943e-06 -9.76311e-21 -3.10972e-08)
(5.56679e-06 -1.23605e-20 -2.3631e-08)
(5.58896e-06 0 -2.07051e-08)
(5.6111e-06 0 -2.35705e-08)
(5.63925e-06 -1.49694e-20 -3.27313e-08)
(5.67956e-06 -1.26003e-20 -4.78966e-08)
(5.73753e-06 2.54542e-20 -6.803e-08)
(5.81725e-06 2.44679e-21 -9.1418e-08)
(5.92085e-06 1.06732e-20 -1.15782e-07)
(6.04797e-06 2.48256e-21 -1.38454e-07)
(6.19547e-06 -2.74985e-20 -1.5655e-07)
(6.35736e-06 6.11552e-37 -1.67219e-07)
(6.525e-06 1.19212e-20 -1.68066e-07)
(6.68782e-06 0 -1.57575e-07)
(6.83436e-06 -1.51911e-20 -1.35516e-07)
(6.95374e-06 -1.2849e-20 -1.03235e-07)
(7.03718e-06 2.86992e-20 -6.36463e-08)
(7.07945e-06 1.83099e-20 -2.08987e-08)
(7.07978e-06 0 2.02497e-08)
(7.04205e-06 -7.13851e-37 5.51942e-08)
(6.97436e-06 1.30998e-20 8.02042e-08)
(6.8878e-06 0 9.29084e-08)
(6.79511e-06 4.52524e-20 9.24752e-08)
(6.70909e-06 2.18098e-21 7.95534e-08)
(6.64132e-06 1.26152e-20 5.59842e-08)
(6.60111e-06 -1.2578e-20 2.4451e-08)
(6.59481e-06 0 -1.18485e-08)
(6.6255e-06 0 -4.95412e-08)
(6.69292e-06 0 -8.52983e-08)
(6.79361e-06 1.31437e-20 -1.16077e-07)
(6.92133e-06 -3.07197e-20 -1.39366e-07)
(7.06773e-06 0 -1.53444e-07)
(7.22327e-06 1.87577e-21 -1.57627e-07)
(7.37826e-06 1.45275e-20 -1.52363e-07)
(7.52405e-06 -4.82938e-20 -1.39212e-07)
(7.65394e-06 0 -1.20562e-07)
(7.76386e-06 0 -9.92706e-08)
(7.85259e-06 1.56918e-20 -7.82022e-08)
(7.92161e-06 -1.75888e-20 -5.98405e-08)
(7.97452e-06 1.77049e-20 -4.59683e-08)
(8.01626e-06 -1.61581e-20 -3.75169e-08)
(8.05229e-06 1.62752e-20 -3.45468e-08)
(8.08773e-06 -1.63925e-20 -3.63231e-08)
(8.1266e-06 -1.80476e-20 -4.143e-08)
(8.17127e-06 0 -4.78976e-08)
(8.22192e-06 1.68254e-20 -5.34145e-08)
(8.2764e-06 -1.83947e-20 -5.55394e-08)
(8.33017e-06 0 -5.20037e-08)
(8.37673e-06 -1.73508e-20 -4.11048e-08)
(8.40832e-06 3.61901e-20 -2.20757e-08)
(8.41706e-06 1.98404e-20 4.58318e-09)
(8.3963e-06 0 3.69495e-08)
(8.34191e-06 -2.59244e-37 7.18212e-08)
(8.25346e-06 0 1.05084e-07)
(8.13474e-06 1.72822e-20 1.32362e-07)
(7.9937e-06 -1.77397e-20 1.49718e-07)
(7.84172e-06 1.73947e-20 1.54231e-07)
(7.6924e-06 -1.65183e-20 1.44418e-07)
(7.56e-06 1.6291e-20 1.20369e-07)
(7.45799e-06 -1.61286e-20 8.36498e-08)
(7.39756e-06 0 3.72258e-08)
(7.38619e-06 5.95963e-38 -1.44959e-08)
(7.42599e-06 3.27101e-20 -6.51077e-08)
(7.51073e-06 -4.99751e-20 -1.04375e-07)
(7.6197e-06 0 -1.13565e-07)
(7.7034e-06 -1.72005e-20 -5.38215e-08)
(7.16136e-06 -6.29967e-23 4.4039e-08)
(7.16432e-06 0 1.02751e-07)
(7.16674e-06 -2.50625e-22 1.20275e-07)
(7.16799e-06 -4.99142e-22 1.21124e-07)
(7.17021e-06 -2.00296e-24 1.15556e-07)
(7.17549e-06 -1.99366e-21 1.08364e-07)
(7.18502e-06 1.7699e-24 1.01926e-07)
(7.19894e-06 1.00025e-21 9.72353e-08)
(7.2165e-06 1.00134e-21 9.42698e-08)
(7.23642e-06 1.61456e-24 9.21866e-08)
(7.25735e-06 1.0078e-21 8.95086e-08)
(7.27834e-06 -1.48849e-24 8.43827e-08)
(7.29919e-06 -3.04125e-21 7.48984e-08)
(7.32063e-06 1.06099e-24 5.94228e-08)
(7.34432e-06 -2.04237e-21 3.69326e-08)
(7.37256e-06 1.54747e-25 7.24321e-09)
(7.40778e-06 -4.76173e-25 -2.89073e-08)
(7.45192e-06 4.13828e-21 -6.98572e-08)
(7.50585e-06 2.08136e-21 -1.13153e-07)
(7.5688e-06 -4.20281e-21 -1.55734e-07)
(7.63823e-06 -2.11876e-21 -1.94209e-07)
(7.7098e-06 4.27272e-21 -2.25155e-07)
(7.77775e-06 -4.31874e-21 -2.45441e-07)
(7.83551e-06 2.15573e-21 -2.52628e-07)
(7.87658e-06 4.36679e-21 -2.45371e-07)
(7.89548e-06 -4.38708e-21 -2.23732e-07)
(7.88854e-06 -3.34603e-24 -1.89354e-07)
(7.85453e-06 -2.5606e-24 -1.45472e-07)
(7.79502e-06 -4.32746e-21 -9.66419e-08)
(7.71437e-06 -8.24615e-25 -4.81719e-08)
(7.61934e-06 -6.9606e-26 -5.42163e-09)
(7.51852e-06 4.96114e-25 2.69867e-08)
(7.42151e-06 8.19075e-25 4.58584e-08)
(7.33797e-06 8.80263e-25 4.98681e-08)
(7.27678e-06 -4.03556e-21 3.9714e-08)
(7.2451e-06 3.12028e-25 1.79456e-08)
(7.24765e-06 8.02847e-21 -1.14406e-08)
(7.2862e-06 -7.64087e-25 -4.35157e-08)
(7.35922e-06 -4.07667e-21 -7.29489e-08)
(7.46173e-06 -1.67283e-24 -9.45767e-08)
(7.58547e-06 -4.2005e-21 -1.03959e-07)
(7.71946e-06 -1.75861e-24 -9.79182e-08)
(7.85071e-06 -1.36245e-24 -7.50378e-08)
(7.96544e-06 -6.70806e-25 -3.609e-08)
(8.05053e-06 4.47854e-21 1.57331e-08)
(8.09517e-06 1.33252e-24 7.49205e-08)
(8.09242e-06 9.01436e-21 1.34202e-07)
(8.04054e-06 1.34399e-20 1.85554e-07)
(7.94358e-06 3.95797e-24 2.21496e-07)
(7.81103e-06 4.20159e-24 2.3641e-07)
(7.65663e-06 4.01642e-24 2.27537e-07)
(7.49627e-06 8.33334e-21 1.95398e-07)
(7.34563e-06 2.49815e-24 1.4362e-07)
(7.218e-06 -8.00411e-21 7.8269e-08)
(7.12263e-06 -7.89357e-21 6.91764e-09)
(7.0639e-06 -1.07781e-24 -6.22565e-08)
(7.04132e-06 4.18887e-24 -1.21257e-07)
(7.05011e-06 -2.81824e-24 -1.6298e-07)
(7.08224e-06 -3.15385e-24 -1.81877e-07)
(7.12768e-06 -3.03878e-24 -1.74588e-07)
(7.1757e-06 -2.45603e-24 -1.40527e-07)
(7.21586e-06 1.60159e-20 -8.2295e-08)
(7.23896e-06 -1.05832e-25 -5.74967e-09)
(7.23779e-06 1.40597e-24 8.04061e-08)
(7.20785e-06 2.89739e-24 1.65536e-07)
(7.14804e-06 4.16707e-24 2.38537e-07)
(7.06118e-06 5.03941e-24 2.89528e-07)
(6.95412e-06 -1.54542e-20 3.11406e-07)
(6.83726e-06 0 3.00913e-07)
(6.72319e-06 7.46408e-21 2.58882e-07)
(6.62482e-06 -7.34993e-21 1.89769e-07)
(6.55318e-06 1.71393e-24 1.00703e-07)
(6.51548e-06 1.95975e-27 4.0693e-10)
(6.51387e-06 -7.21704e-21 -1.01725e-07)
(6.54504e-06 0 -1.96304e-07)
(6.60079e-06 -4.75662e-24 -2.74535e-07)
(6.66958e-06 -5.73282e-24 -3.28831e-07)
(6.73859e-06 0 -3.53547e-07)
(6.79593e-06 0 -3.45747e-07)
(6.8325e-06 -5.38872e-24 -3.05784e-07)
(6.84295e-06 7.60186e-21 -2.37522e-07)
(6.82571e-06 5.13859e-24 -1.48056e-07)
(6.7822e-06 -7.58302e-25 -4.68918e-08)
(6.71578e-06 1.05862e-24 5.52378e-08)
(6.63078e-06 7.37871e-21 1.47747e-07)
(6.53196e-06 3.96688e-24 2.21581e-07)
(6.42443e-06 4.79247e-24 2.70401e-07)
(6.31361e-06 5.12332e-24 2.91311e-07)
(6.20512e-06 4.98341e-24 2.85054e-07)
(6.10431e-06 4.45077e-24 2.55638e-07)
(6.01552e-06 1.33474e-20 2.09494e-07)
(5.94128e-06 2.68567e-24 1.54442e-07)
(5.88188e-06 1.72356e-24 9.864e-08)
(5.83523e-06 0 4.96604e-08)
(5.79746e-06 -6.43017e-21 1.37565e-08)
(5.76374e-06 1.279e-20 -4.691e-09)
(5.72934e-06 -2.96878e-26 -3.54956e-09)
(5.69046e-06 3.33955e-25 1.69026e-08)
(5.64473e-06 0 5.40598e-08)
(5.59115e-06 -6.2121e-21 1.03337e-07)
(5.52984e-06 2.84057e-24 1.58764e-07)
(5.4615e-06 -1.21408e-20 2.13764e-07)
(5.38714e-06 0 2.62006e-07)
(5.3079e-06 -1.17956e-20 2.98209e-07)
(5.2252e-06 5.63139e-24 3.18774e-07)
(5.14092e-06 -2.28269e-20 3.22132e-07)
(5.05747e-06 0 3.08752e-07)
(4.97772e-06 -4.94267e-24 2.80839e-07)
(4.90471e-06 4.25517e-24 2.41798e-07)
(4.84122e-06 -1.07357e-20 1.95616e-07)
(4.78945e-06 -1.06164e-20 1.46289e-07)
(4.75086e-06 -1.71953e-24 9.73845e-08)
(4.72622e-06 0 5.17731e-08)
(4.71578e-06 1.04555e-20 1.15059e-08)
(4.71954e-06 3.94136e-25 -2.21845e-08)
(4.73748e-06 -1.05078e-20 -4.88122e-08)
(4.7696e-06 -1.05805e-20 -6.85277e-08)
(4.81581e-06 -1.4646e-24 -8.19728e-08)
(4.87568e-06 1.08246e-20 -9.01212e-08)
(4.94808e-06 0 -9.41232e-08)
(5.03087e-06 -1.11725e-20 -9.51435e-08)
(5.1207e-06 -1.68189e-24 -9.42088e-08)
(5.21298e-06 -1.15841e-20 -9.20817e-08)
(5.30205e-06 -1.17871e-20 -8.91729e-08)
(5.38157e-06 -1.19653e-20 -8.55097e-08)
(5.44506e-06 -1.4317e-24 -8.07905e-08)
(5.48667e-06 -1.22023e-20 -7.45149e-08)
(5.50187e-06 0 -6.61791e-08)
(5.48826e-06 -1.22035e-20 -5.55117e-08)
(5.44606e-06 -7.51119e-25 -4.26806e-08)
(5.37848e-06 4.95749e-25 -2.84325e-08)
(5.29154e-06 0 -1.41129e-08)
(5.19361e-06 -1.15285e-20 -1.54821e-09)
(5.09461e-06 -1.13024e-20 7.1866e-09)
(5.00497e-06 -1.10983e-20 1.00734e-08)
(4.93471e-06 -1.09378e-20 5.46031e-09)
(4.89258e-06 0 -7.66978e-09)
(4.88549e-06 0 -2.95128e-08)
(4.91805e-06 2.17907e-20 -5.93531e-08)
(4.99234e-06 0 -9.55572e-08)
(5.1076e-06 2.26412e-20 -1.35635e-07)
(5.26013e-06 -1.16608e-20 -1.76345e-07)
(5.44317e-06 -3.38641e-24 -2.13895e-07)
(5.6471e-06 3.87371e-24 -2.44264e-07)
(5.85996e-06 -2.60315e-20 -2.63604e-07)
(6.06855e-06 -1.34861e-20 -2.68751e-07)
(6.25981e-06 -1.3921e-20 -2.578e-07)
(6.42257e-06 -1.42819e-20 -2.30594e-07)
(6.54904e-06 0 -1.88967e-07)
(6.63595e-06 -1.47526e-20 -1.36699e-07)
(6.68486e-06 -1.28742e-24 -7.90886e-08)
(6.70163e-06 1.48907e-20 -2.22301e-08)
(6.69531e-06 0 2.79001e-08)
(6.67656e-06 -1.48222e-20 6.62939e-08)
(6.65612e-06 1.47736e-20 8.95531e-08)
(6.64345e-06 0 9.62261e-08)
(6.64582e-06 1.47455e-20 8.67828e-08)
(6.66769e-06 -1.05353e-24 6.33802e-08)
(6.71044e-06 2.9786e-20 2.94114e-08)
(6.77248e-06 -1.50343e-20 -1.10253e-08)
(6.84972e-06 -1.52104e-20 -5.36054e-08)
(6.93618e-06 -1.54067e-20 -9.42488e-08)
(7.0251e-06 0 -1.29509e-07)
(7.11011e-06 -1.58001e-20 -1.56877e-07)
(7.18653e-06 0 -1.74982e-07)
(7.25239e-06 0 -1.83688e-07)
(7.30908e-06 -1.62263e-20 -1.84075e-07)
(7.3614e-06 -2.99671e-24 -1.78238e-07)
(7.41702e-06 -1.64512e-20 -1.68953e-07)
(7.48541e-06 -3.31966e-20 -1.59216e-07)
(7.57658e-06 -1.67943e-20 -1.51788e-07)
(7.69966e-06 1.70605e-20 -1.48756e-07)
(7.86158e-06 0 -1.51207e-07)
(8.06604e-06 1.7876e-20 -1.59069e-07)
(8.31272e-06 3.68604e-20 -1.71097e-07)
(8.59677e-06 -3.1349e-24 -1.85018e-07)
(8.9088e-06 -1.97701e-20 -1.97875e-07)
(9.23535e-06 -2.05135e-20 -2.06428e-07)
(9.56003e-06 -2.12506e-20 -2.07586e-07)
(9.86517e-06 -3.37496e-24 -1.98862e-07)
(1.01338e-05 0 -1.78721e-07)
(1.03518e-05 0 -1.46809e-07)
(1.05096e-05 1.77731e-24 -1.04081e-07)
(1.06033e-05 -9.00901e-25 -5.27865e-08)
(1.06349e-05 2.36546e-20 3.62329e-09)
(1.06121e-05 -4.71771e-20 6.07352e-08)
(1.05466e-05 -2.3426e-20 1.13566e-07)
(1.04528e-05 -4.64031e-20 1.57062e-07)
(1.03465e-05 3.20526e-24 1.86712e-07)
(1.02427e-05 0 1.99137e-07)
(1.0155e-05 -2.25115e-20 1.92539e-07)
(1.00942e-05 -4.47544e-20 1.66953e-07)
(1.00677e-05 2.18937e-24 1.24284e-07)
(1.00793e-05 -2.23549e-20 6.81335e-08)
(1.01284e-05 0 3.62142e-09)
(1.02102e-05 -2.26657e-20 -6.26024e-08)
(1.0315e-05 -2.05502e-24 -1.21828e-07)
(1.04287e-05 -6.95222e-20 -1.61365e-07)
(1.05315e-05 0 -1.59412e-07)
(1.05958e-05 -2.36032e-20 -7.22419e-08)
(7.02458e-06 0 1.9177e-08)
(7.10435e-06 1.24727e-22 4.48837e-08)
(7.22884e-06 -2.48921e-22 5.12284e-08)
(7.37007e-06 3.30933e-24 4.76972e-08)
(7.51686e-06 -5.18493e-22 3.99767e-08)
(7.66376e-06 -5.31507e-22 3.17618e-08)
(7.80735e-06 0 2.54031e-08)
(7.94508e-06 0 2.21104e-08)
(8.07491e-06 0 2.20014e-08)
(8.19526e-06 0 2.41882e-08)
(8.3049e-06 1.15357e-21 2.69355e-08)
(8.40291e-06 0 2.79524e-08)
(8.48859e-06 0 2.47962e-08)
(8.56133e-06 0 1.5352e-08)
(8.62034e-06 -4.79406e-21 -1.70128e-09)
(8.66454e-06 0 -2.6566e-08)
(8.69241e-06 0 -5.81805e-08)
(8.70194e-06 0 -9.42604e-08)
(8.69081e-06 0 -1.31548e-07)
(8.65673e-06 0 -1.66213e-07)
(8.59788e-06 4.77398e-21 -1.94303e-07)
(8.51345e-06 0 -2.12205e-07)
(8.40419e-06 0 -2.17078e-07)
(8.27268e-06 2.27991e-21 -2.07236e-07)
(8.12331e-06 0 -1.82466e-07)
(7.96193e-06 0 -1.44164e-07)
(7.79529e-06 0 -9.53355e-08)
(7.63026e-06 0 -4.04464e-08)
(7.47314e-06 -4.14687e-21 1.49598e-08)
(7.32914e-06 0 6.48771e-08)
(7.20215e-06 3.99649e-21 1.03549e-07)
(7.09471e-06 -7.87361e-21 1.26264e-07)
(7.00825e-06 -3.88849e-21 1.3006e-07)
(6.94326e-06 0 1.14193e-07)
(6.89951e-06 -3.82952e-21 8.0327e-08)
(6.87617e-06 0 3.23556e-08)
(6.87183e-06 0 -2.40582e-08)
(6.8845e-06 -7.63211e-21 -8.21258e-08)
(6.91177e-06 0 -1.34624e-07)
(6.95099e-06 3.85272e-21 -1.74626e-07)
(6.99956e-06 -3.87354e-21 -1.96227e-07)
(7.0551e-06 1.17371e-20 -1.95172e-07)
(7.11548e-06 0 -1.69421e-07)
(7.1787e-06 0 -1.19653e-07)
(7.24245e-06 0 -4.95492e-08)
(7.30377e-06 4.05948e-21 3.42472e-08)
(7.35875e-06 0 1.22646e-07)
(7.40263e-06 0 2.05104e-07)
(7.4304e-06 0 2.71137e-07)
(7.43769e-06 8.27996e-21 3.1203e-07)
(7.42165e-06 0 3.2235e-07)
(7.38169e-06 0 3.00908e-07)
(7.31955e-06 0 2.50894e-07)
(7.23892e-06 0 1.79251e-07)
(7.14479e-06 -1.58678e-20 9.54417e-08)
(7.04268e-06 0 1.00622e-08)
(6.93817e-06 7.69058e-21 -6.64972e-08)
(6.83685e-06 -7.57598e-21 -1.25208e-07)
(6.74431e-06 7.47026e-21 -1.59231e-07)
(6.66617e-06 0 -1.64542e-07)
(6.6079e-06 0 -1.40308e-07)
(6.57421e-06 0 -8.89955e-08)
(6.56831e-06 1.45559e-20 -1.62483e-08)
(6.59088e-06 0 6.9509e-08)
(6.6394e-06 0 1.57849e-07)
(6.70792e-06 0 2.37514e-07)
(6.78743e-06 1.50797e-20 2.97902e-07)
(6.86691e-06 7.63285e-21 3.30604e-07)
(6.93476e-06 1.14505e-23 3.30734e-07)
(6.98021e-06 7.76495e-21 2.97684e-07)
(6.99443e-06 -8.23081e-24 2.35115e-07)
(6.97117e-06 0 1.50257e-07)
(6.90698e-06 -7.68074e-21 5.27428e-08)
(6.80119e-06 0 -4.66636e-08)
(6.65599e-06 7.39828e-21 -1.37327e-07)
(6.47657e-06 0 -2.09838e-07)
(6.27117e-06 -6.9572e-21 -2.56927e-07)
(6.05088e-06 0 -2.74165e-07)
(5.82876e-06 8.64639e-24 -2.60362e-07)
(5.6186e-06 6.22654e-21 -2.17575e-07)
(5.43317e-06 0 -1.50743e-07)
(5.28259e-06 1.75629e-20 -6.70184e-08)
(5.1731e-06 -5.73525e-21 2.50741e-08)
(5.10627e-06 0 1.16521e-07)
(5.07903e-06 0 1.98706e-07)
(5.08419e-06 0 2.64273e-07)
(5.1115e-06 0 3.07937e-07)
(5.14896e-06 0 3.27129e-07)
(5.18437e-06 0 3.22313e-07)
(5.2067e-06 0 2.96868e-07)
(5.20725e-06 0 2.56507e-07)
(5.18054e-06 0 2.08365e-07)
(5.12474e-06 0 1.59931e-07)
(5.04169e-06 4.19769e-24 1.18061e-07)
(4.93664e-06 0 8.81731e-08)
(4.81753e-06 -2.7026e-24 7.37277e-08)
(4.69396e-06 0 7.60045e-08)
(4.57602e-06 0 9.41591e-08)
(4.47306e-06 0 1.25508e-07)
(4.39253e-06 -5.73086e-24 1.65987e-07)
(4.33927e-06 0 2.10691e-07)
(4.31498e-06 -8.63265e-24 2.54459e-07)
(4.31823e-06 -9.57692e-21 2.92428e-07)
(4.34472e-06 -1.09013e-23 3.20534e-07)
(4.38794e-06 0 3.35926e-07)
(4.44e-06 -1.16257e-23 3.37207e-07)
(4.49265e-06 0 3.24483e-07)
(4.53832e-06 -1.04739e-23 2.99178e-07)
(4.57111e-06 -2.03043e-20 2.63678e-07)
(4.58749e-06 -7.80648e-24 2.20857e-07)
(4.58668e-06 0 1.73626e-07)
(4.57072e-06 -4.40814e-24 1.24585e-07)
(4.54413e-06 1.00848e-20 7.58074e-08)
(4.51325e-06 0 2.8793e-08)
(4.4855e-06 5.28001e-25 -1.54747e-08)
(4.46843e-06 0 -5.63914e-08)
(4.46892e-06 3.21476e-24 -9.35601e-08)
(4.49238e-06 0 -1.26618e-07)
(4.54213e-06 5.31267e-24 -1.55096e-07)
(4.6189e-06 0 -1.78316e-07)
(4.72054e-06 6.72265e-24 -1.95372e-07)
(4.84191e-06 0 -2.0519e-07)
(4.97522e-06 1.10611e-20 -2.06684e-07)
(5.11056e-06 0 -1.98991e-07)
(5.2371e-06 -1.16413e-20 -1.81745e-07)
(5.3444e-06 0 -1.55345e-07)
(5.42396e-06 4.29934e-24 -1.21129e-07)
(5.47061e-06 0 -8.14184e-08)
(5.48336e-06 1.38885e-24 -3.94099e-08)
(5.46569e-06 0 1.08661e-09)
(5.42506e-06 -1.26423e-24 3.6004e-08)
(5.37204e-06 -1.19232e-20 6.14163e-08)
(5.31896e-06 1.17946e-20 7.39317e-08)
(5.27866e-06 0 7.10122e-08)
(5.26333e-06 -1.73995e-24 5.1211e-08)
(5.2836e-06 0 1.4317e-08)
(5.34775e-06 1.18116e-24 -3.85492e-08)
(5.46109e-06 0 -1.04885e-07)
(5.62536e-06 -1.24644e-20 -1.80813e-07)
(5.83814e-06 0 -2.61163e-07)
(6.09252e-06 1.3514e-20 -3.39675e-07)
(6.37711e-06 1.33483e-23 -4.09419e-07)
(6.6767e-06 -1.48301e-20 -4.63449e-07)
(6.97373e-06 -3.09825e-20 -4.9567e-07)
(7.25045e-06 0 -5.01778e-07)
(7.49137e-06 1.66782e-20 -4.80088e-07)
(7.68564e-06 0 -4.3199e-07)
(7.82846e-06 0 -3.6198e-07)
(7.92158e-06 1.7609e-20 -2.77172e-07)
(7.97253e-06 -3.5421e-20 -1.86363e-07)
(7.99304e-06 3.54999e-20 -9.88425e-08)
(7.99695e-06 7.86609e-25 -2.31554e-08)
(7.9981e-06 -1.77466e-20 3.39925e-08)
(8.00856e-06 1.7764e-20 6.84946e-08)
(8.03715e-06 -1.78296e-20 7.92104e-08)
(8.08847e-06 0 6.79122e-08)
(8.16235e-06 0 3.8844e-08)
(8.25379e-06 -1.5045e-25 -1.98475e-09)
(8.35357e-06 -1.85585e-20 -4.77505e-08)
(8.44951e-06 2.97004e-24 -9.18523e-08)
(8.52834e-06 0 -1.28845e-07)
(8.57803e-06 5.32489e-24 -1.55166e-07)
(8.59009e-06 0 -1.69565e-07)
(8.56134e-06 3.80742e-20 -1.73087e-07)
(8.49486e-06 0 -1.68704e-07)
(8.39975e-06 0 -1.60714e-07)
(8.29002e-06 5.43899e-24 -1.54009e-07)
(8.18275e-06 0 -1.53356e-07)
(8.09608e-06 5.62022e-24 -1.62785e-07)
(8.04738e-06 -1.78277e-20 -1.85082e-07)
(8.05169e-06 1.7838e-20 -2.21403e-07)
(8.12053e-06 0 -2.71053e-07)
(8.26102e-06 0 -3.3132e-07)
(8.47511e-06 0 -3.9751e-07)
(8.759e-06 1.57087e-23 -4.6323e-07)
(9.10299e-06 0 -5.2092e-07)
(9.49177e-06 1.96071e-23 -5.62782e-07)
(9.90564e-06 -6.59995e-20 -5.81941e-07)
(1.03225e-05 6.88518e-20 -5.73605e-07)
(1.07205e-05 4.76875e-20 -5.35954e-07)
(1.10807e-05 0 -4.70521e-07)
(1.13897e-05 2.53471e-20 -3.81952e-07)
(1.16402e-05 1.03699e-23 -2.77266e-07)
(1.18318e-05 0 -1.64895e-07)
(1.19696e-05 2.03115e-24 -5.3707e-08)
(1.20627e-05 -5.36021e-20 4.78298e-08)
(1.21224e-05 -4.897e-24 1.32257e-07)
(1.21609e-05 0 1.93639e-07)
(1.21893e-05 0 2.28029e-07)
(1.22171e-05 0 2.33807e-07)
(1.22508e-05 0 2.11892e-07)
(1.22935e-05 -6.06922e-24 1.65751e-07)
(1.23443e-05 0 1.01144e-07)
(1.23983e-05 -9.87854e-25 2.56372e-08)
(1.24473e-05 0 -5.2021e-08)
(1.24811e-05 4.39945e-24 -1.22405e-07)
(1.24897e-05 0 -1.7545e-07)
(1.24674e-05 -8.32044e-20 -1.99237e-07)
(1.24194e-05 0 -1.76291e-07)
(1.23748e-05 -2.74026e-20 -7.5075e-08)
(6.018e-06 5.01168e-23 -2.60202e-08)
(6.09709e-06 1.005e-22 -6.87851e-08)
(6.23815e-06 -4.32074e-22 -1.00655e-07)
(6.42652e-06 0 -1.30014e-07)
(6.65409e-06 -4.60929e-22 -1.5667e-07)
(6.91386e-06 0 -1.78256e-07)
(7.1981e-06 1.42007e-23 -1.92411e-07)
(7.49784e-06 1.4505e-23 -1.97553e-07)
(7.80286e-06 1.40945e-23 -1.9319e-07)
(8.10189e-06 -1.11205e-21 -1.8e-07)
(8.38316e-06 2.34137e-21 -1.59785e-07)
(8.63505e-06 1.20073e-21 -1.35219e-07)
(8.84678e-06 -2.45398e-21 -1.09449e-07)
(9.0092e-06 -2.50188e-21 -8.5557e-08)
(9.11546e-06 -2.53792e-21 -6.60607e-08)
(9.16154e-06 3.68306e-24 -5.24965e-08)
(9.14664e-06 -5.08832e-21 -4.52103e-08)
(9.07324e-06 2.52409e-21 -4.33617e-08)
(8.94704e-06 -4.97149e-21 -4.51254e-08)
(8.77654e-06 -2.43473e-21 -4.80558e-08)
(8.57243e-06 0 -4.94864e-08)
(8.34677e-06 -2.31201e-21 -4.69331e-08)
(8.11211e-06 -2.24615e-21 -3.84374e-08)
(7.88057e-06 0 -2.28167e-08)
(7.6629e-06 -1.06281e-25 1.54672e-10)
(7.46783e-06 -2.10752e-24 2.96482e-08)
(7.30157e-06 -4.04962e-21 6.37647e-08)
(7.16742e-06 -6.81902e-24 9.96365e-08)
(7.06579e-06 -9.11594e-24 1.33628e-07)
(6.99434e-06 -1.10287e-23 1.61652e-07)
(6.94843e-06 -3.86748e-21 1.79683e-07)
(6.92169e-06 -1.26387e-23 1.84301e-07)
(6.90691e-06 -3.84666e-21 1.73265e-07)
(6.89688e-06 -3.83985e-21 1.46003e-07)
(6.88532e-06 0 1.0383e-07)
(6.86757e-06 -3.45258e-24 4.99363e-08)
(6.8412e-06 -3.79663e-21 -1.09215e-08)
(6.80621e-06 -7.54828e-21 -7.29464e-08)
(6.76505e-06 -3.74346e-21 -1.2991e-07)
(6.72227e-06 -3.71534e-21 -1.75785e-07)
(6.68399e-06 0 -2.05353e-07)
(6.65709e-06 -3.67526e-21 -2.1468e-07)
(6.64834e-06 -3.67153e-21 -2.01556e-07)
(6.66346e-06 -3.68317e-21 -1.65854e-07)
(6.70614e-06 -3.71209e-21 -1.09773e-07)
(6.7772e-06 -3.75841e-21 -3.79124e-08)
(6.87408e-06 7.63168e-21 4.29499e-08)
(6.9906e-06 -3.8931e-21 1.24398e-07)
(7.1173e-06 -3.97124e-21 1.97363e-07)
(7.24238e-06 -1.61365e-20 2.53442e-07)
(7.35312e-06 -8.20567e-21 2.86236e-07)
(7.43765e-06 -8.30145e-21 2.92454e-07)
(7.48669e-06 -8.35345e-21 2.72451e-07)
(7.49493e-06 -1.58654e-23 2.30081e-07)
(7.46175e-06 -8.30918e-21 1.71922e-07)
(7.39127e-06 -8.21899e-21 1.06173e-07)
(7.29175e-06 8.09349e-21 4.14119e-08)
(7.17448e-06 1.16024e-24 -1.45178e-08)
(7.05239e-06 -7.81043e-21 -5.5294e-08)
(6.9387e-06 5.36425e-24 -7.66561e-08)
(6.84548e-06 -7.5729e-21 -7.66941e-08)
(6.78242e-06 -7.50421e-21 -5.58615e-08)
(6.75578e-06 -7.47919e-21 -1.6837e-08)
(6.76759e-06 -7.49958e-21 3.57132e-08)
(6.81514e-06 -7.56174e-21 9.55773e-08)
(6.89072e-06 -7.65637e-21 1.5568e-07)
(6.98205e-06 -7.76887e-21 2.08893e-07)
(7.07321e-06 -7.88044e-21 2.48974e-07)
(7.14627e-06 0 2.7145e-07)
(7.18357e-06 -1.88876e-23 2.74226e-07)
(7.1701e-06 -1.77729e-23 2.57819e-07)
(7.09577e-06 -7.9171e-21 2.25136e-07)
(6.95691e-06 -7.74356e-21 1.80918e-07)
(6.75683e-06 -7.52422e-21 1.31031e-07)
(6.50533e-06 -7.23412e-21 8.16854e-08)
(6.2172e-06 -6.90378e-21 3.86991e-08)
(5.91026e-06 -6.55374e-21 6.87247e-09)
(5.60308e-06 -1.24151e-20 -1.04875e-08)
(5.31299e-06 5.88173e-25 -1.18366e-08)
(5.05449e-06 -5.59514e-21 2.55929e-09)
(4.83826e-06 0 3.0791e-08)
(4.67065e-06 5.17075e-21 6.96221e-08)
(4.55369e-06 -7.85232e-24 1.14891e-07)
(4.48525e-06 -4.98158e-21 1.61974e-07)
(4.45948e-06 9.87701e-21 2.06267e-07)
(4.46734e-06 -4.9746e-21 2.43689e-07)
(4.4974e-06 -5.01369e-21 2.71156e-07)
(4.53687e-06 -5.06211e-21 2.86969e-07)
(4.57293e-06 -5.10521e-21 2.91001e-07)
(4.59415e-06 -5.13e-21 2.84639e-07)
(4.59187e-06 -1.02346e-20 2.70468e-07)
(4.56119e-06 -5.09043e-21 2.51789e-07)
(4.50142e-06 -1.65683e-23 2.32076e-07)
(4.41589e-06 0 2.14495e-07)
(4.31113e-06 -1.4496e-23 2.01547e-07)
(4.19575e-06 -4.66963e-21 1.94849e-07)
(4.07914e-06 -4.53779e-21 1.95058e-07)
(3.97029e-06 0 2.01893e-07)
(3.87679e-06 -4.31178e-21 2.14249e-07)
(3.80419e-06 -4.23198e-21 2.30365e-07)
(3.75572e-06 0 2.48042e-07)
(3.73222e-06 -1.84088e-23 2.64901e-07)
(3.73231e-06 0 2.78651e-07)
(3.75279e-06 -8.34378e-21 2.87337e-07)
(3.78915e-06 0 2.89542e-07)
(3.83619e-06 -1.96741e-23 2.84491e-07)
(3.88871e-06 -8.63122e-21 2.72031e-07)
(3.94216e-06 -8.76802e-21 2.52511e-07)
(3.99313e-06 0 2.26583e-07)
(4.03971e-06 -1.79458e-20 1.95001e-07)
(4.08153e-06 0 1.58468e-07)
(4.11965e-06 -9.14896e-21 1.17576e-07)
(4.15622e-06 -1.84415e-20 7.28399e-08)
(4.19405e-06 9.3039e-21 2.48075e-08)
(4.23611e-06 -9.39544e-21 -2.57993e-08)
(4.28506e-06 0 -7.79449e-08)
(4.34274e-06 -9.62779e-21 -1.3017e-07)
(4.4098e-06 9.78841e-21 -1.80537e-07)
(4.48552e-06 1.5466e-23 -2.26646e-07)
(4.56772e-06 -2.02927e-20 -2.65745e-07)
(4.6531e-06 -1.03196e-20 -2.94947e-07)
(4.73767e-06 -1.05305e-20 -3.11569e-07)
(4.81761e-06 -1.06887e-20 -3.13544e-07)
(4.89e-06 0 -2.99872e-07)
(4.9536e-06 -1.09924e-20 -2.71e-07)
(5.00923e-06 0 -2.29022e-07)
(5.05987e-06 1.18872e-23 -1.7765e-07)
(5.11025e-06 0 -1.21931e-07)
(5.16636e-06 -1.14583e-20 -6.77605e-08)
(5.23476e-06 1.16085e-20 -2.12777e-08)
(5.32201e-06 -1.17977e-20 1.17408e-08)
(5.4343e-06 0 2.64129e-08)
(5.57713e-06 -1.56442e-24 1.91903e-08)
(5.75502e-06 0 -1.18411e-08)
(5.97119e-06 3.97378e-24 -6.67789e-08)
(6.22699e-06 -1.38026e-20 -1.43761e-07)
(6.5213e-06 -2.8907e-20 -2.38927e-07)
(6.84991e-06 -1.51982e-20 -3.46466e-07)
(7.20524e-06 0 -4.58828e-07)
(7.57649e-06 0 -5.67181e-07)
(7.95058e-06 1.7668e-20 -6.6213e-07)
(8.31375e-06 5.23219e-23 -7.34722e-07)
(8.65359e-06 -1.92394e-20 -7.77568e-07)
(8.96093e-06 -1.98655e-20 -7.85935e-07)
(9.23125e-06 -2.05193e-20 -7.58551e-07)
(9.4649e-06 -2.09816e-20 -6.9789e-07)
(9.66636e-06 0 -6.09907e-07)
(9.84276e-06 -4.3711e-20 -5.03279e-07)
(1.0002e-05 2.22021e-20 -3.88275e-07)
(1.01513e-05 1.97147e-23 -2.7547e-07)
(1.02955e-05 0 -1.74471e-07)
(1.04369e-05 -2.31564e-20 -9.28437e-08)
(1.05748e-05 -7.04215e-20 -3.52972e-08)
(1.07053e-05 -2.37719e-20 -3.24644e-09)
(1.08225e-05 0 5.2129e-09)
(1.09182e-05 -2.4265e-20 -5.1104e-09)
(1.09835e-05 0 -2.7352e-08)
(1.10101e-05 -2.44823e-20 -5.3763e-08)
(1.09913e-05 0 -7.70325e-08)
(1.09244e-05 -2.4292e-20 -9.15522e-08)
(1.08107e-05 -2.40413e-20 -9.43211e-08)
(1.06567e-05 -2.36837e-20 -8.53447e-08)
(1.04727e-05 -2.32704e-20 -6.74809e-08)
(1.0272e-05 0 -4.57503e-08)
(1.00688e-05 0 -2.63637e-08)
(9.87661e-06 0 -1.5706e-08)
(9.70675e-06 -2.15247e-20 -1.94203e-08)
(9.56782e-06 0 -4.1749e-08)
(9.46521e-06 2.09893e-20 -8.51198e-08)
(9.40105e-06 0 -1.49885e-07)
(9.37431e-06 -2.07702e-20 -2.34167e-07)
(9.38099e-06 -4.16155e-20 -3.33811e-07)
(9.41438e-06 0 -4.42434e-07)
(9.46558e-06 0 -5.51691e-07)
(9.52457e-06 -2.11064e-20 -6.51925e-07)
(9.58155e-06 -6.38552e-20 -7.33197e-07)
(9.62892e-06 -2.13405e-20 -7.86654e-07)
(9.66297e-06 -2.14724e-20 -8.05995e-07)
(9.68523e-06 -2.14658e-20 -7.88655e-07)
(9.70263e-06 0 -7.36281e-07)
(9.72658e-06 -6.48034e-20 -6.54408e-07)
(9.77098e-06 0 -5.51426e-07)
(9.84978e-06 -2.18268e-20 -4.37131e-07)
(9.97449e-06 0 -3.21346e-07)
(1.01523e-05 -2.24983e-20 -2.1284e-07)
(1.03849e-05 0 -1.18695e-07)
(1.0668e-05 -4.73007e-20 -4.4057e-08)
(1.09915e-05 -2.43728e-20 7.94788e-09)
(1.13406e-05 0 3.62572e-08)
(1.16965e-05 -5.19098e-20 4.18807e-08)
(1.20387e-05 5.34583e-20 2.78584e-08)
(1.23467e-05 -2.74292e-20 -9.19852e-10)
(1.26019e-05 0 -3.81263e-08)
(1.27894e-05 -5.6884e-20 -7.66638e-08)
(1.29002e-05 -5.74045e-20 -1.09537e-07)
(1.29323e-05 -2.87701e-20 -1.30711e-07)
(1.28923e-05 0 -1.35703e-07)
(1.27972e-05 -5.69473e-20 -1.21675e-07)
(1.26785e-05 0 -8.71078e-08)
(1.2591e-05 -2.78196e-20 -3.21394e-08)
(5.13234e-06 4.45559e-23 -5.23944e-08)
(5.1599e-06 8.92486e-23 -1.49066e-07)
(5.23479e-06 -3.77366e-22 -2.36326e-07)
(5.37207e-06 -2.07639e-23 -3.19994e-07)
(5.57555e-06 -4.11533e-22 -3.97743e-07)
(5.84364e-06 0 -4.65035e-07)
(6.17086e-06 3.41552e-23 -5.17088e-07)
(6.54794e-06 -7.31734e-23 -5.49707e-07)
(6.96165e-06 -7.50981e-23 -5.59765e-07)
(7.39485e-06 -9.89285e-22 -5.45661e-07)
(7.82718e-06 2.10557e-21 -5.07715e-07)
(8.23632e-06 0 -4.48319e-07)
(8.60006e-06 -2.3685e-21 -3.71814e-07)
(8.89849e-06 -2.45915e-21 -2.84048e-07)
(9.11633e-06 0 -1.91663e-07)
(9.24459e-06 -2.56893e-21 -1.01244e-07)
(9.28157e-06 -5.16934e-21 -1.85301e-08)
(9.2327e-06 2.57001e-21 5.22265e-08)
(9.10957e-06 -5.0746e-21 1.08607e-07)
(8.92821e-06 -2.49105e-21 1.50074e-07)
(8.70697e-06 0 1.77741e-07)
(8.46451e-06 -2.36083e-21 1.93957e-07)
(8.21803e-06 -2.29138e-21 2.01803e-07)
(7.982e-06 0 2.04525e-07)