/*--------------------------------*- C++ -*----------------------------------*\
  =========                 |
  \\      /  F ield         | OpenFOAM: The Open Source CFD Toolbox
   \\    /   O peration     | Website:  https://openfoam.org
    \\  /    A nd           | Version:  7
     \\/     M anipulation  |
\*---------------------------------------------------------------------------*/
FoamFile
{
    version     2.0;
    format      ascii;
    class       volTensorField;
    location    "0";
    object      K;
}
// * * * * * * * * * * * * * * * * * * * * * * * * * * * * * * * * * * * * * //

dimensions      [0 2 0 0 0 0 0];

internalField   nonuniform List<tensor> 
20000
(
(3.78861 0 0 0 3.78861 0 0 0 3.78861)
(3.57235 0 0 0 3.57235 0 0 0 3.57235)
(3.45597 0 0 0 3.45597 0 0 0 3.45597)
(3.49923 0 0 0 3.49923 0 0 0 3.49923)
(3.70719 0 0 0 3.70719 0 0 0 3.70719)
(4.0605 0 0 0 4.0605 0 0 0 4.0605)
(4.54161 0 0 0 4.54161 0 0 0 4.54161)
(5.1459 0 0 0 5.1459 0 0 0 5.1459)
(5.86221 0 0 0 5.86221 0 0 0 5.86221)
(6.62533 0 0 0 6.62533 0 0 0 6.62533)
(7.28228 0 0 0 7.28228 0 0 0 7.28228)
(7.63845 0 0 0 7.63845 0 0 0 7.63845)
(7.58615 0 0 0 7.58615 0 0 0 7.58615)
(7.1906 0 0 0 7.1906 0 0 0 7.1906)
(6.62749 0 0 0 6.62749 0 0 0 6.62749)
(6.05055 0 0 0 6.05055 0 0 0 6.05055)
(5.52553 0 0 0 5.52553 0 0 0 5.52553)
(5.05377 0 0 0 5.05377 0 0 0 5.05377)
(4.6275 0 0 0 4.6275 0 0 0 4.6275)
(4.26182 0 0 0 4.26182 0 0 0 4.26182)
(3.98566 0 0 0 3.98566 0 0 0 3.98566)
(3.81235 0 0 0 3.81235 0 0 0 3.81235)
(3.71936 0 0 0 3.71936 0 0 0 3.71936)
(3.651 0 0 0 3.651 0 0 0 3.651)
(3.54532 0 0 0 3.54532 0 0 0 3.54532)
(3.37137 0 0 0 3.37137 0 0 0 3.37137)
(3.14394 0 0 0 3.14394 0 0 0 3.14394)
(2.89994 0 0 0 2.89994 0 0 0 2.89994)
(2.66308 0 0 0 2.66308 0 0 0 2.66308)
(2.43187 0 0 0 2.43187 0 0 0 2.43187)
(2.19542 0 0 0 2.19542 0 0 0 2.19542)
(1.95663 0 0 0 1.95663 0 0 0 1.95663)
(1.7383 0 0 0 1.7383 0 0 0 1.7383)
(1.56725 0 0 0 1.56725 0 0 0 1.56725)
(1.45524 0 0 0 1.45524 0 0 0 1.45524)
(1.39185 0 0 0 1.39185 0 0 0 1.39185)
(1.34929 0 0 0 1.34929 0 0 0 1.34929)
(1.29628 0 0 0 1.29628 0 0 0 1.29628)
(1.21662 0 0 0 1.21662 0 0 0 1.21662)
(1.11758 0 0 0 1.11758 0 0 0 1.11758)
(1.01858 0 0 0 1.01858 0 0 0 1.01858)
(0.932813 0 0 0 0.932813 0 0 0 0.932813)
(0.859304 0 0 0 0.859304 0 0 0 0.859304)
(0.788002 0 0 0 0.788002 0 0 0 0.788002)
(0.710671 0 0 0 0.710671 0 0 0 0.710671)
(0.628132 0 0 0 0.628132 0 0 0 0.628132)
(0.547781 0 0 0 0.547781 0 0 0 0.547781)
(0.475538 0 0 0 0.475538 0 0 0 0.475538)
(0.411557 0 0 0 0.411557 0 0 0 0.411557)
(0.35291 0 0 0 0.35291 0 0 0 0.35291)
(0.2992 0 0 0 0.2992 0 0 0 0.2992)
(0.254992 0 0 0 0.254992 0 0 0 0.254992)
(0.227088 0 0 0 0.227088 0 0 0 0.227088)
(0.221162 0 0 0 0.221162 0 0 0 0.221162)
(0.24145 0 0 0 0.24145 0 0 0 0.24145)
(0.29046 0 0 0 0.29046 0 0 0 0.29046)
(0.363527 0 0 0 0.363527 0 0 0 0.363527)
(0.44081 0 0 0 0.44081 0 0 0 0.44081)
(0.493065 0 0 0 0.493065 0 0 0 0.493065)
(0.506451 0 0 0 0.506451 0 0 0 0.506451)
(0.49472 0 0 0 0.49472 0 0 0 0.49472)
(0.481492 0 0 0 0.481492 0 0 0 0.481492)
(0.479616 0 0 0 0.479616 0 0 0 0.479616)
(0.48574 0 0 0 0.48574 0 0 0 0.48574)
(0.485744 0 0 0 0.485744 0 0 0 0.485744)
(0.466918 0 0 0 0.466918 0 0 0 0.466918)
(0.429659 0 0 0 0.429659 0 0 0 0.429659)
(0.386479 0 0 0 0.386479 0 0 0 0.386479)
(0.350501 0 0 0 0.350501 0 0 0 0.350501)
(0.3276 0 0 0 0.3276 0 0 0 0.3276)
(0.316637 0 0 0 0.316637 0 0 0 0.316637)
(0.313131 0 0 0 0.313131 0 0 0 0.313131)
(0.312854 0 0 0 0.312854 0 0 0 0.312854)
(0.313936 0 0 0 0.313936 0 0 0 0.313936)
(0.316617 0 0 0 0.316617 0 0 0 0.316617)
(0.321359 0 0 0 0.321359 0 0 0 0.321359)
(0.327418 0 0 0 0.327418 0 0 0 0.327418)
(0.333298 0 0 0 0.333298 0 0 0 0.333298)
(0.338541 0 0 0 0.338541 0 0 0 0.338541)
(0.344863 0 0 0 0.344863 0 0 0 0.344863)
(0.355193 0 0 0 0.355193 0 0 0 0.355193)
(0.371406 0 0 0 0.371406 0 0 0 0.371406)
(0.392774 0 0 0 0.392774 0 0 0 0.392774)
(0.416684 0 0 0 0.416684 0 0 0 0.416684)
(0.44161 0 0 0 0.44161 0 0 0 0.44161)
(0.46992 0 0 0 0.46992 0 0 0 0.46992)
(0.50719 0 0 0 0.50719 0 0 0 0.50719)
(0.557541 0 0 0 0.557541 0 0 0 0.557541)
(0.617608 0 0 0 0.617608 0 0 0 0.617608)
(0.673863 0 0 0 0.673863 0 0 0 0.673863)
(0.709461 0 0 0 0.709461 0 0 0 0.709461)
(0.719153 0 0 0 0.719153 0 0 0 0.719153)
(0.716456 0 0 0 0.716456 0 0 0 0.716456)
(0.723439 0 0 0 0.723439 0 0 0 0.723439)
(0.754665 0 0 0 0.754665 0 0 0 0.754665)
(0.807102 0 0 0 0.807102 0 0 0 0.807102)
(0.858403 0 0 0 0.858403 0 0 0 0.858403)
(0.879156 0 0 0 0.879156 0 0 0 0.879156)
(0.857869 0 0 0 0.857869 0 0 0 0.857869)
(0.812707 0 0 0 0.812707 0 0 0 0.812707)
(0.773948 0 0 0 0.773948 0 0 0 0.773948)
(0.760116 0 0 0 0.760116 0 0 0 0.760116)
(0.768723 0 0 0 0.768723 0 0 0 0.768723)
(0.779801 0 0 0 0.779801 0 0 0 0.779801)
(0.769783 0 0 0 0.769783 0 0 0 0.769783)
(0.731254 0 0 0 0.731254 0 0 0 0.731254)
(0.679554 0 0 0 0.679554 0 0 0 0.679554)
(0.638185 0 0 0 0.638185 0 0 0 0.638185)
(0.622024 0 0 0 0.622024 0 0 0 0.622024)
(0.632546 0 0 0 0.632546 0 0 0 0.632546)
(0.661293 0 0 0 0.661293 0 0 0 0.661293)
(0.696836 0 0 0 0.696836 0 0 0 0.696836)
(0.733176 0 0 0 0.733176 0 0 0 0.733176)
(0.773718 0 0 0 0.773718 0 0 0 0.773718)
(0.826373 0 0 0 0.826373 0 0 0 0.826373)
(0.893967 0 0 0 0.893967 0 0 0 0.893967)
(0.967773 0 0 0 0.967773 0 0 0 0.967773)
(1.03004 0 0 0 1.03004 0 0 0 1.03004)
(1.06573 0 0 0 1.06573 0 0 0 1.06573)
(1.07252 0 0 0 1.07252 0 0 0 1.07252)
(1.0569 0 0 0 1.0569 0 0 0 1.0569)
(1.02121 0 0 0 1.02121 0 0 0 1.02121)
(0.958256 0 0 0 0.958256 0 0 0 0.958256)
(0.861794 0 0 0 0.861794 0 0 0 0.861794)
(0.742182 0 0 0 0.742182 0 0 0 0.742182)
(0.626261 0 0 0 0.626261 0 0 0 0.626261)
(0.540173 0 0 0 0.540173 0 0 0 0.540173)
(0.496561 0 0 0 0.496561 0 0 0 0.496561)
(0.495208 0 0 0 0.495208 0 0 0 0.495208)
(0.526602 0 0 0 0.526602 0 0 0 0.526602)
(0.571619 0 0 0 0.571619 0 0 0 0.571619)
(0.603714 0 0 0 0.603714 0 0 0 0.603714)
(0.601151 0 0 0 0.601151 0 0 0 0.601151)
(0.560321 0 0 0 0.560321 0 0 0 0.560321)
(0.494355 0 0 0 0.494355 0 0 0 0.494355)
(0.420687 0 0 0 0.420687 0 0 0 0.420687)
(0.352539 0 0 0 0.352539 0 0 0 0.352539)
(0.297985 0 0 0 0.297985 0 0 0 0.297985)
(0.261506 0 0 0 0.261506 0 0 0 0.261506)
(0.245079 0 0 0 0.245079 0 0 0 0.245079)
(0.248744 0 0 0 0.248744 0 0 0 0.248744)
(0.270104 0 0 0 0.270104 0 0 0 0.270104)
(0.302261 0 0 0 0.302261 0 0 0 0.302261)
(0.333121 0 0 0 0.333121 0 0 0 0.333121)
(0.351267 0 0 0 0.351267 0 0 0 0.351267)
(0.35537 0 0 0 0.35537 0 0 0 0.35537)
(0.355191 0 0 0 0.355191 0 0 0 0.355191)
(0.362862 0 0 0 0.362862 0 0 0 0.362862)
(0.384943 0 0 0 0.384943 0 0 0 0.384943)
(0.419973 0 0 0 0.419973 0 0 0 0.419973)
(0.460659 0 0 0 0.460659 0 0 0 0.460659)
(0.500768 0 0 0 0.500768 0 0 0 0.500768)
(0.542891 0 0 0 0.542891 0 0 0 0.542891)
(0.59888 0 0 0 0.59888 0 0 0 0.59888)
(0.681492 0 0 0 0.681492 0 0 0 0.681492)
(0.792335 0 0 0 0.792335 0 0 0 0.792335)
(0.911811 0 0 0 0.911811 0 0 0 0.911811)
(1.00357 0 0 0 1.00357 0 0 0 1.00357)
(1.04242 0 0 0 1.04242 0 0 0 1.04242)
(1.03947 0 0 0 1.03947 0 0 0 1.03947)
(1.03113 0 0 0 1.03113 0 0 0 1.03113)
(1.04815 0 0 0 1.04815 0 0 0 1.04815)
(1.09752 0 0 0 1.09752 0 0 0 1.09752)
(1.16241 0 0 0 1.16241 0 0 0 1.16241)
(1.21671 0 0 0 1.21671 0 0 0 1.21671)
(1.24951 0 0 0 1.24951 0 0 0 1.24951)
(1.27856 0 0 0 1.27856 0 0 0 1.27856)
(1.33784 0 0 0 1.33784 0 0 0 1.33784)
(1.45365 0 0 0 1.45365 0 0 0 1.45365)
(1.62602 0 0 0 1.62602 0 0 0 1.62602)
(1.82015 0 0 0 1.82015 0 0 0 1.82015)
(1.97924 0 0 0 1.97924 0 0 0 1.97924)
(2.06342 0 0 0 2.06342 0 0 0 2.06342)
(2.07959 0 0 0 2.07959 0 0 0 2.07959)
(2.06617 0 0 0 2.06617 0 0 0 2.06617)
(2.05483 0 0 0 2.05483 0 0 0 2.05483)
(2.05029 0 0 0 2.05029 0 0 0 2.05029)
(2.03866 0 0 0 2.03866 0 0 0 2.03866)
(2.01032 0 0 0 2.01032 0 0 0 2.01032)
(1.97571 0 0 0 1.97571 0 0 0 1.97571)
(1.96006 0 0 0 1.96006 0 0 0 1.96006)
(1.98553 0 0 0 1.98553 0 0 0 1.98553)
(2.05813 0 0 0 2.05813 0 0 0 2.05813)
(2.16727 0 0 0 2.16727 0 0 0 2.16727)
(2.29607 0 0 0 2.29607 0 0 0 2.29607)
(2.43411 0 0 0 2.43411 0 0 0 2.43411)
(2.57984 0 0 0 2.57984 0 0 0 2.57984)
(2.72742 0 0 0 2.72742 0 0 0 2.72742)
(2.85135 0 0 0 2.85135 0 0 0 2.85135)
(2.91178 0 0 0 2.91178 0 0 0 2.91178)
(2.88893 0 0 0 2.88893 0 0 0 2.88893)
(2.81643 0 0 0 2.81643 0 0 0 2.81643)
(2.77251 0 0 0 2.77251 0 0 0 2.77251)
(2.8371 0 0 0 2.8371 0 0 0 2.8371)
(3.05284 0 0 0 3.05284 0 0 0 3.05284)
(3.39656 0 0 0 3.39656 0 0 0 3.39656)
(3.76008 0 0 0 3.76008 0 0 0 3.76008)
(3.98468 0 0 0 3.98468 0 0 0 3.98468)
(3.97579 0 0 0 3.97579 0 0 0 3.97579)
(3.78861 0 0 0 3.78861 0 0 0 3.78861)
(3.98384 0 0 0 3.98384 0 0 0 3.98384)
(3.98706 0 0 0 3.98706 0 0 0 3.98706)
(4.04283 0 0 0 4.04283 0 0 0 4.04283)
(4.14549 0 0 0 4.14549 0 0 0 4.14549)
(4.2861 0 0 0 4.2861 0 0 0 4.2861)
(4.47236 0 0 0 4.47236 0 0 0 4.47236)
(4.72369 0 0 0 4.72369 0 0 0 4.72369)
(5.04317 0 0 0 5.04317 0 0 0 5.04317)
(5.3872 0 0 0 5.3872 0 0 0 5.3872)
(5.6632 0 0 0 5.6632 0 0 0 5.6632)
(5.77627 0 0 0 5.77627 0 0 0 5.77627)
(5.69858 0 0 0 5.69858 0 0 0 5.69858)
(5.49049 0 0 0 5.49049 0 0 0 5.49049)
(5.24757 0 0 0 5.24757 0 0 0 5.24757)
(5.03206 0 0 0 5.03206 0 0 0 5.03206)
(4.84741 0 0 0 4.84741 0 0 0 4.84741)
(4.66121 0 0 0 4.66121 0 0 0 4.66121)
(4.44882 0 0 0 4.44882 0 0 0 4.44882)
(4.22125 0 0 0 4.22125 0 0 0 4.22125)
(4.01449 0 0 0 4.01449 0 0 0 4.01449)
(3.85483 0 0 0 3.85483 0 0 0 3.85483)
(3.73306 0 0 0 3.73306 0 0 0 3.73306)
(3.60655 0 0 0 3.60655 0 0 0 3.60655)
(3.42835 0 0 0 3.42835 0 0 0 3.42835)
(3.18367 0 0 0 3.18367 0 0 0 3.18367)
(2.9007 0 0 0 2.9007 0 0 0 2.9007)
(2.62512 0 0 0 2.62512 0 0 0 2.62512)
(2.38693 0 0 0 2.38693 0 0 0 2.38693)
(2.18878 0 0 0 2.18878 0 0 0 2.18878)
(2.01703 0 0 0 2.01703 0 0 0 2.01703)
(1.86012 0 0 0 1.86012 0 0 0 1.86012)
(1.7189 0 0 0 1.7189 0 0 0 1.7189)
(1.60217 0 0 0 1.60217 0 0 0 1.60217)
(1.51384 0 0 0 1.51384 0 0 0 1.51384)
(1.44394 0 0 0 1.44394 0 0 0 1.44394)
(1.37079 0 0 0 1.37079 0 0 0 1.37079)
(1.27463 0 0 0 1.27463 0 0 0 1.27463)
(1.15341 0 0 0 1.15341 0 0 0 1.15341)
(1.02503 0 0 0 1.02503 0 0 0 1.02503)
(0.912522 0 0 0 0.912522 0 0 0 0.912522)
(0.828468 0 0 0 0.828468 0 0 0 0.828468)
(0.770814 0 0 0 0.770814 0 0 0 0.770814)
(0.727962 0 0 0 0.727962 0 0 0 0.727962)
(0.687307 0 0 0 0.687307 0 0 0 0.687307)
(0.642665 0 0 0 0.642665 0 0 0 0.642665)
(0.59566 0 0 0 0.59566 0 0 0 0.59566)
(0.550272 0 0 0 0.550272 0 0 0 0.550272)
(0.506589 0 0 0 0.506589 0 0 0 0.506589)
(0.459987 0 0 0 0.459987 0 0 0 0.459987)
(0.406488 0 0 0 0.406488 0 0 0 0.406488)
(0.349065 0 0 0 0.349065 0 0 0 0.349065)
(0.297548 0 0 0 0.297548 0 0 0 0.297548)
(0.262195 0 0 0 0.262195 0 0 0 0.262195)
(0.248958 0 0 0 0.248958 0 0 0 0.248958)
(0.259823 0 0 0 0.259823 0 0 0 0.259823)
(0.293974 0 0 0 0.293974 0 0 0 0.293974)
(0.346328 0 0 0 0.346328 0 0 0 0.346328)
(0.405852 0 0 0 0.405852 0 0 0 0.405852)
(0.459451 0 0 0 0.459451 0 0 0 0.459451)
(0.500457 0 0 0 0.500457 0 0 0 0.500457)
(0.531704 0 0 0 0.531704 0 0 0 0.531704)
(0.559289 0 0 0 0.559289 0 0 0 0.559289)
(0.584677 0 0 0 0.584677 0 0 0 0.584677)
(0.602486 0 0 0 0.602486 0 0 0 0.602486)
(0.605037 0 0 0 0.605037 0 0 0 0.605037)
(0.589296 0 0 0 0.589296 0 0 0 0.589296)
(0.559372 0 0 0 0.559372 0 0 0 0.559372)
(0.52267 0 0 0 0.52267 0 0 0 0.52267)
(0.485023 0 0 0 0.485023 0 0 0 0.485023)
(0.449592 0 0 0 0.449592 0 0 0 0.449592)
(0.418855 0 0 0 0.418855 0 0 0 0.418855)
(0.396305 0 0 0 0.396305 0 0 0 0.396305)
(0.3859 0 0 0 0.3859 0 0 0 0.3859)
(0.390016 0 0 0 0.390016 0 0 0 0.390016)
(0.407304 0 0 0 0.407304 0 0 0 0.407304)
(0.431535 0 0 0 0.431535 0 0 0 0.431535)
(0.453156 0 0 0 0.453156 0 0 0 0.453156)
(0.464696 0 0 0 0.464696 0 0 0 0.464696)
(0.466205 0 0 0 0.466205 0 0 0 0.466205)
(0.464478 0 0 0 0.464478 0 0 0 0.464478)
(0.466629 0 0 0 0.466629 0 0 0 0.466629)
(0.474378 0 0 0 0.474378 0 0 0 0.474378)
(0.483201 0 0 0 0.483201 0 0 0 0.483201)
(0.486791 0 0 0 0.486791 0 0 0 0.486791)
(0.484092 0 0 0 0.484092 0 0 0 0.484092)
(0.482552 0 0 0 0.482552 0 0 0 0.482552)
(0.494428 0 0 0 0.494428 0 0 0 0.494428)
(0.530489 0 0 0 0.530489 0 0 0 0.530489)
(0.595376 0 0 0 0.595376 0 0 0 0.595376)
(0.684569 0 0 0 0.684569 0 0 0 0.684569)
(0.784504 0 0 0 0.784504 0 0 0 0.784504)
(0.879857 0 0 0 0.879857 0 0 0 0.879857)
(0.964062 0 0 0 0.964062 0 0 0 0.964062)
(1.04072 0 0 0 1.04072 0 0 0 1.04072)
(1.1126 0 0 0 1.1126 0 0 0 1.1126)
(1.16994 0 0 0 1.16994 0 0 0 1.16994)
(1.19183 0 0 0 1.19183 0 0 0 1.19183)
(1.16407 0 0 0 1.16407 0 0 0 1.16407)
(1.09668 0 0 0 1.09668 0 0 0 1.09668)
(1.01883 0 0 0 1.01883 0 0 0 1.01883)
(0.956894 0 0 0 0.956894 0 0 0 0.956894)
(0.918784 0 0 0 0.918784 0 0 0 0.918784)
(0.893152 0 0 0 0.893152 0 0 0 0.893152)
(0.859657 0 0 0 0.859657 0 0 0 0.859657)
(0.8056 0 0 0 0.8056 0 0 0 0.8056)
(0.737386 0 0 0 0.737386 0 0 0 0.737386)
(0.674878 0 0 0 0.674878 0 0 0 0.674878)
(0.636113 0 0 0 0.636113 0 0 0 0.636113)
(0.628358 0 0 0 0.628358 0 0 0 0.628358)
(0.647977 0 0 0 0.647977 0 0 0 0.647977)
(0.683818 0 0 0 0.683818 0 0 0 0.683818)
(0.722983 0 0 0 0.722983 0 0 0 0.722983)
(0.75827 0 0 0 0.75827 0 0 0 0.75827)
(0.791517 0 0 0 0.791517 0 0 0 0.791517)
(0.828871 0 0 0 0.828871 0 0 0 0.828871)
(0.872452 0 0 0 0.872452 0 0 0 0.872452)
(0.915763 0 0 0 0.915763 0 0 0 0.915763)
(0.946766 0 0 0 0.946766 0 0 0 0.946766)
(0.956646 0 0 0 0.956646 0 0 0 0.956646)
(0.945908 0 0 0 0.945908 0 0 0 0.945908)
(0.920919 0 0 0 0.920919 0 0 0 0.920919)
(0.885093 0 0 0 0.885093 0 0 0 0.885093)
(0.834873 0 0 0 0.834873 0 0 0 0.834873)
(0.765259 0 0 0 0.765259 0 0 0 0.765259)
(0.679593 0 0 0 0.679593 0 0 0 0.679593)
(0.592288 0 0 0 0.592288 0 0 0 0.592288)
(0.520682 0 0 0 0.520682 0 0 0 0.520682)
(0.475459 0 0 0 0.475459 0 0 0 0.475459)
(0.457712 0 0 0 0.457712 0 0 0 0.457712)
(0.460345 0 0 0 0.460345 0 0 0 0.460345)
(0.469992 0 0 0 0.469992 0 0 0 0.469992)
(0.471084 0 0 0 0.471084 0 0 0 0.471084)
(0.453686 0 0 0 0.453686 0 0 0 0.453686)
(0.419236 0 0 0 0.419236 0 0 0 0.419236)
(0.37746 0 0 0 0.37746 0 0 0 0.37746)
(0.338228 0 0 0 0.338228 0 0 0 0.338228)
(0.306769 0 0 0 0.306769 0 0 0 0.306769)
(0.284106 0 0 0 0.284106 0 0 0 0.284106)
(0.269551 0 0 0 0.269551 0 0 0 0.269551)
(0.262634 0 0 0 0.262634 0 0 0 0.262634)
(0.263719 0 0 0 0.263719 0 0 0 0.263719)
(0.273577 0 0 0 0.273577 0 0 0 0.273577)
(0.292532 0 0 0 0.292532 0 0 0 0.292532)
(0.31965 0 0 0 0.31965 0 0 0 0.31965)
(0.352361 0 0 0 0.352361 0 0 0 0.352361)
(0.38686 0 0 0 0.38686 0 0 0 0.38686)
(0.419233 0 0 0 0.419233 0 0 0 0.419233)
(0.446663 0 0 0 0.446663 0 0 0 0.446663)
(0.46808 0 0 0 0.46808 0 0 0 0.46808)
(0.484387 0 0 0 0.484387 0 0 0 0.484387)
(0.498686 0 0 0 0.498686 0 0 0 0.498686)
(0.516367 0 0 0 0.516367 0 0 0 0.516367)
(0.544575 0 0 0 0.544575 0 0 0 0.544575)
(0.590761 0 0 0 0.590761 0 0 0 0.590761)
(0.660226 0 0 0 0.660226 0 0 0 0.660226)
(0.752352 0 0 0 0.752352 0 0 0 0.752352)
(0.856221 0 0 0 0.856221 0 0 0 0.856221)
(0.949756 0 0 0 0.949756 0 0 0 0.949756)
(1.00819 0 0 0 1.00819 0 0 0 1.00819)
(1.01988 0 0 0 1.01988 0 0 0 1.01988)
(0.99557 0 0 0 0.99557 0 0 0 0.99557)
(0.961695 0 0 0 0.961695 0 0 0 0.961695)
(0.945685 0 0 0 0.945685 0 0 0 0.945685)
(0.966302 0 0 0 0.966302 0 0 0 0.966302)
(1.03085 0 0 0 1.03085 0 0 0 1.03085)
(1.13382 0 0 0 1.13382 0 0 0 1.13382)
(1.25551 0 0 0 1.25551 0 0 0 1.25551)
(1.36668 0 0 0 1.36668 0 0 0 1.36668)
(1.44433 0 0 0 1.44433 0 0 0 1.44433)
(1.4886 0 0 0 1.4886 0 0 0 1.4886)
(1.52354 0 0 0 1.52354 0 0 0 1.52354)
(1.58028 0 0 0 1.58028 0 0 0 1.58028)
(1.67744 0 0 0 1.67744 0 0 0 1.67744)
(1.8077 0 0 0 1.8077 0 0 0 1.8077)
(1.93391 0 0 0 1.93391 0 0 0 1.93391)
(2.00337 0 0 0 2.00337 0 0 0 2.00337)
(1.98198 0 0 0 1.98198 0 0 0 1.98198)
(1.88107 0 0 0 1.88107 0 0 0 1.88107)
(1.7474 0 0 0 1.7474 0 0 0 1.7474)
(1.62989 0 0 0 1.62989 0 0 0 1.62989)
(1.55828 0 0 0 1.55828 0 0 0 1.55828)
(1.54345 0 0 0 1.54345 0 0 0 1.54345)
(1.58738 0 0 0 1.58738 0 0 0 1.58738)
(1.69137 0 0 0 1.69137 0 0 0 1.69137)
(1.85749 0 0 0 1.85749 0 0 0 1.85749)
(2.08137 0 0 0 2.08137 0 0 0 2.08137)
(2.33864 0 0 0 2.33864 0 0 0 2.33864)
(2.57746 0 0 0 2.57746 0 0 0 2.57746)
(2.73658 0 0 0 2.73658 0 0 0 2.73658)
(2.78942 0 0 0 2.78942 0 0 0 2.78942)
(2.77288 0 0 0 2.77288 0 0 0 2.77288)
(2.76592 0 0 0 2.76592 0 0 0 2.76592)
(2.84208 0 0 0 2.84208 0 0 0 2.84208)
(3.03587 0 0 0 3.03587 0 0 0 3.03587)
(3.32749 0 0 0 3.32749 0 0 0 3.32749)
(3.64274 0 0 0 3.64274 0 0 0 3.64274)
(3.88531 0 0 0 3.88531 0 0 0 3.88531)
(3.99982 0 0 0 3.99982 0 0 0 3.99982)
(4.00893 0 0 0 4.00893 0 0 0 4.00893)
(3.98384 0 0 0 3.98384 0 0 0 3.98384)
(4.44933 0 0 0 4.44933 0 0 0 4.44933)
(4.72793 0 0 0 4.72793 0 0 0 4.72793)
(5.03596 0 0 0 5.03596 0 0 0 5.03596)
(5.26467 0 0 0 5.26467 0 0 0 5.26467)
(5.35501 0 0 0 5.35501 0 0 0 5.35501)
(5.33302 0 0 0 5.33302 0 0 0 5.33302)
(5.26528 0 0 0 5.26528 0 0 0 5.26528)
(5.19021 0 0 0 5.19021 0 0 0 5.19021)
(5.09308 0 0 0 5.09308 0 0 0 5.09308)
(4.93559 0 0 0 4.93559 0 0 0 4.93559)
(4.70523 0 0 0 4.70523 0 0 0 4.70523)
(4.43476 0 0 0 4.43476 0 0 0 4.43476)
(4.17516 0 0 0 4.17516 0 0 0 4.17516)
(3.95599 0 0 0 3.95599 0 0 0 3.95599)
(3.77231 0 0 0 3.77231 0 0 0 3.77231)
(3.60382 0 0 0 3.60382 0 0 0 3.60382)
(3.44535 0 0 0 3.44535 0 0 0 3.44535)
(3.32012 0 0 0 3.32012 0 0 0 3.32012)
(3.26314 0 0 0 3.26314 0 0 0 3.26314)
(3.28988 0 0 0 3.28988 0 0 0 3.28988)
(3.37184 0 0 0 3.37184 0 0 0 3.37184)
(3.43458 0 0 0 3.43458 0 0 0 3.43458)
(3.39307 0 0 0 3.39307 0 0 0 3.39307)
(3.21265 0 0 0 3.21265 0 0 0 3.21265)
(2.9352 0 0 0 2.9352 0 0 0 2.9352)
(2.637 0 0 0 2.637 0 0 0 2.637)
(2.36942 0 0 0 2.36942 0 0 0 2.36942)
(2.13977 0 0 0 2.13977 0 0 0 2.13977)
(1.9317 0 0 0 1.9317 0 0 0 1.9317)
(1.7359 0 0 0 1.7359 0 0 0 1.7359)
(1.56467 0 0 0 1.56467 0 0 0 1.56467)
(1.44136 0 0 0 1.44136 0 0 0 1.44136)
(1.37956 0 0 0 1.37956 0 0 0 1.37956)
(1.369 0 0 0 1.369 0 0 0 1.369)
(1.37172 0 0 0 1.37172 0 0 0 1.37172)
(1.33436 0 0 0 1.33436 0 0 0 1.33436)
(1.22392 0 0 0 1.22392 0 0 0 1.22392)
(1.05843 0 0 0 1.05843 0 0 0 1.05843)
(0.889969 0 0 0 0.889969 0 0 0 0.889969)
(0.760914 0 0 0 0.760914 0 0 0 0.760914)
(0.684552 0 0 0 0.684552 0 0 0 0.684552)
(0.652785 0 0 0 0.652785 0 0 0 0.652785)
(0.647714 0 0 0 0.647714 0 0 0 0.647714)
(0.649451 0 0 0 0.649451 0 0 0 0.649451)
(0.643177 0 0 0 0.643177 0 0 0 0.643177)
(0.623653 0 0 0 0.623653 0 0 0 0.623653)
(0.592899 0 0 0 0.592899 0 0 0 0.592899)
(0.554011 0 0 0 0.554011 0 0 0 0.554011)
(0.508257 0 0 0 0.508257 0 0 0 0.508257)
(0.457271 0 0 0 0.457271 0 0 0 0.457271)
(0.405954 0 0 0 0.405954 0 0 0 0.405954)
(0.361687 0 0 0 0.361687 0 0 0 0.361687)
(0.330809 0 0 0 0.330809 0 0 0 0.330809)
(0.316274 0 0 0 0.316274 0 0 0 0.316274)
(0.317846 0 0 0 0.317846 0 0 0 0.317846)
(0.333474 0 0 0 0.333474 0 0 0 0.333474)
(0.36077 0 0 0 0.36077 0 0 0 0.36077)
(0.398189 0 0 0 0.398189 0 0 0 0.398189)
(0.444999 0 0 0 0.444999 0 0 0 0.444999)
(0.499129 0 0 0 0.499129 0 0 0 0.499129)
(0.553881 0 0 0 0.553881 0 0 0 0.553881)
(0.597389 0 0 0 0.597389 0 0 0 0.597389)
(0.618638 0 0 0 0.618638 0 0 0 0.618638)
(0.616622 0 0 0 0.616622 0 0 0 0.616622)
(0.602157 0 0 0 0.602157 0 0 0 0.602157)
(0.58918 0 0 0 0.58918 0 0 0 0.58918)
(0.584406 0 0 0 0.584406 0 0 0 0.584406)
(0.583169 0 0 0 0.583169 0 0 0 0.583169)
(0.573213 0 0 0 0.573213 0 0 0 0.573213)
(0.54552 0 0 0 0.54552 0 0 0 0.54552)
(0.504364 0 0 0 0.504364 0 0 0 0.504364)
(0.465404 0 0 0 0.465404 0 0 0 0.465404)
(0.444495 0 0 0 0.444495 0 0 0 0.444495)
(0.449778 0 0 0 0.449778 0 0 0 0.449778)
(0.479803 0 0 0 0.479803 0 0 0 0.479803)
(0.523229 0 0 0 0.523229 0 0 0 0.523229)
(0.561499 0 0 0 0.561499 0 0 0 0.561499)
(0.579134 0 0 0 0.579134 0 0 0 0.579134)
(0.574913 0 0 0 0.574913 0 0 0 0.574913)
(0.560509 0 0 0 0.560509 0 0 0 0.560509)
(0.548766 0 0 0 0.548766 0 0 0 0.548766)
(0.545095 0 0 0 0.545095 0 0 0 0.545095)
(0.547346 0 0 0 0.547346 0 0 0 0.547346)
(0.55122 0 0 0 0.55122 0 0 0 0.55122)
(0.556556 0 0 0 0.556556 0 0 0 0.556556)
(0.569692 0 0 0 0.569692 0 0 0 0.569692)
(0.600449 0 0 0 0.600449 0 0 0 0.600449)
(0.65689 0 0 0 0.65689 0 0 0 0.65689)
(0.740743 0 0 0 0.740743 0 0 0 0.740743)
(0.844642 0 0 0 0.844642 0 0 0 0.844642)
(0.953689 0 0 0 0.953689 0 0 0 0.953689)
(1.05297 0 0 0 1.05297 0 0 0 1.05297)
(1.13557 0 0 0 1.13557 0 0 0 1.13557)
(1.20288 0 0 0 1.20288 0 0 0 1.20288)
(1.25768 0 0 0 1.25768 0 0 0 1.25768)
(1.29862 0 0 0 1.29862 0 0 0 1.29862)
(1.32151 0 0 0 1.32151 0 0 0 1.32151)
(1.3247 0 0 0 1.3247 0 0 0 1.3247)
(1.31125 0 0 0 1.31125 0 0 0 1.31125)
(1.28453 0 0 0 1.28453 0 0 0 1.28453)
(1.24228 0 0 0 1.24228 0 0 0 1.24228)
(1.17702 0 0 0 1.17702 0 0 0 1.17702)
(1.08483 0 0 0 1.08483 0 0 0 1.08483)
(0.974873 0 0 0 0.974873 0 0 0 0.974873)
(0.868278 0 0 0 0.868278 0 0 0 0.868278)
(0.786693 0 0 0 0.786693 0 0 0 0.786693)
(0.742296 0 0 0 0.742296 0 0 0 0.742296)
(0.735463 0 0 0 0.735463 0 0 0 0.735463)
(0.756464 0 0 0 0.756464 0 0 0 0.756464)
(0.78844 0 0 0 0.78844 0 0 0 0.78844)
(0.813962 0 0 0 0.813962 0 0 0 0.813962)
(0.82465 0 0 0 0.82465 0 0 0 0.82465)
(0.825675 0 0 0 0.825675 0 0 0 0.825675)
(0.830006 0 0 0 0.830006 0 0 0 0.830006)
(0.848315 0 0 0 0.848315 0 0 0 0.848315)
(0.88241 0 0 0 0.88241 0 0 0 0.88241)
(0.924117 0 0 0 0.924117 0 0 0 0.924117)
(0.958931 0 0 0 0.958931 0 0 0 0.958931)
(0.973038 0 0 0 0.973038 0 0 0 0.973038)
(0.959422 0 0 0 0.959422 0 0 0 0.959422)
(0.918615 0 0 0 0.918615 0 0 0 0.918615)
(0.855146 0 0 0 0.855146 0 0 0 0.855146)
(0.774741 0 0 0 0.774741 0 0 0 0.774741)
(0.68452 0 0 0 0.68452 0 0 0 0.68452)
(0.59372 0 0 0 0.59372 0 0 0 0.59372)
(0.512138 0 0 0 0.512138 0 0 0 0.512138)
(0.446985 0 0 0 0.446985 0 0 0 0.446985)
(0.40092 0 0 0 0.40092 0 0 0 0.40092)
(0.372256 0 0 0 0.372256 0 0 0 0.372256)
(0.356273 0 0 0 0.356273 0 0 0 0.356273)
(0.346674 0 0 0 0.346674 0 0 0 0.346674)
(0.337366 0 0 0 0.337366 0 0 0 0.337366)
(0.324583 0 0 0 0.324583 0 0 0 0.324583)
(0.308199 0 0 0 0.308199 0 0 0 0.308199)
(0.290957 0 0 0 0.290957 0 0 0 0.290957)
(0.276191 0 0 0 0.276191 0 0 0 0.276191)
(0.265838 0 0 0 0.265838 0 0 0 0.265838)
(0.259858 0 0 0 0.259858 0 0 0 0.259858)
(0.256971 0 0 0 0.256971 0 0 0 0.256971)
(0.256163 0 0 0 0.256163 0 0 0 0.256163)
(0.258154 0 0 0 0.258154 0 0 0 0.258154)
(0.265863 0 0 0 0.265863 0 0 0 0.265863)
(0.283564 0 0 0 0.283564 0 0 0 0.283564)
(0.315165 0 0 0 0.315165 0 0 0 0.315165)
(0.361784 0 0 0 0.361784 0 0 0 0.361784)
(0.418805 0 0 0 0.418805 0 0 0 0.418805)
(0.474792 0 0 0 0.474792 0 0 0 0.474792)
(0.516438 0 0 0 0.516438 0 0 0 0.516438)
(0.538148 0 0 0 0.538148 0 0 0 0.538148)
(0.546509 0 0 0 0.546509 0 0 0 0.546509)
(0.554568 0 0 0 0.554568 0 0 0 0.554568)
(0.572909 0 0 0 0.572909 0 0 0 0.572909)
(0.604978 0 0 0 0.604978 0 0 0 0.604978)
(0.647517 0 0 0 0.647517 0 0 0 0.647517)
(0.694568 0 0 0 0.694568 0 0 0 0.694568)
(0.742594 0 0 0 0.742594 0 0 0 0.742594)
(0.792255 0 0 0 0.792255 0 0 0 0.792255)
(0.844186 0 0 0 0.844186 0 0 0 0.844186)
(0.892266 0 0 0 0.892266 0 0 0 0.892266)
(0.92216 0 0 0 0.92216 0 0 0 0.92216)
(0.920989 0 0 0 0.920989 0 0 0 0.920989)
(0.892229 0 0 0 0.892229 0 0 0 0.892229)
(0.859103 0 0 0 0.859103 0 0 0 0.859103)
(0.851821 0 0 0 0.851821 0 0 0 0.851821)
(0.893257 0 0 0 0.893257 0 0 0 0.893257)
(0.991292 0 0 0 0.991292 0 0 0 0.991292)
(1.13254 0 0 0 1.13254 0 0 0 1.13254)
(1.27998 0 0 0 1.27998 0 0 0 1.27998)
(1.39093 0 0 0 1.39093 0 0 0 1.39093)
(1.45176 0 0 0 1.45176 0 0 0 1.45176)
(1.48964 0 0 0 1.48964 0 0 0 1.48964)
(1.54594 0 0 0 1.54594 0 0 0 1.54594)
(1.64188 0 0 0 1.64188 0 0 0 1.64188)
(1.76033 0 0 0 1.76033 0 0 0 1.76033)
(1.84982 0 0 0 1.84982 0 0 0 1.84982)
(1.85802 0 0 0 1.85802 0 0 0 1.85802)
(1.77599 0 0 0 1.77599 0 0 0 1.77599)
(1.64447 0 0 0 1.64447 0 0 0 1.64447)
(1.51634 0 0 0 1.51634 0 0 0 1.51634)
(1.42326 0 0 0 1.42326 0 0 0 1.42326)
(1.37214 0 0 0 1.37214 0 0 0 1.37214)
(1.35921 0 0 0 1.35921 0 0 0 1.35921)
(1.38447 0 0 0 1.38447 0 0 0 1.38447)
(1.4575 0 0 0 1.4575 0 0 0 1.4575)
(1.592 0 0 0 1.592 0 0 0 1.592)
(1.79137 0 0 0 1.79137 0 0 0 1.79137)
(2.03184 0 0 0 2.03184 0 0 0 2.03184)
(2.25932 0 0 0 2.25932 0 0 0 2.25932)
(2.42074 0 0 0 2.42074 0 0 0 2.42074)
(2.51336 0 0 0 2.51336 0 0 0 2.51336)
(2.59588 0 0 0 2.59588 0 0 0 2.59588)
(2.74737 0 0 0 2.74737 0 0 0 2.74737)
(3.01695 0 0 0 3.01695 0 0 0 3.01695)
(3.38976 0 0 0 3.38976 0 0 0 3.38976)
(3.7768 0 0 0 3.7768 0 0 0 3.7768)
(4.05964 0 0 0 4.05964 0 0 0 4.05964)
(4.18643 0 0 0 4.18643 0 0 0 4.18643)
(4.22027 0 0 0 4.22027 0 0 0 4.22027)
(4.28012 0 0 0 4.28012 0 0 0 4.28012)
(4.44933 0 0 0 4.44933 0 0 0 4.44933)
(5.14651 0 0 0 5.14651 0 0 0 5.14651)
(5.5418 0 0 0 5.5418 0 0 0 5.5418)
(5.86785 0 0 0 5.86785 0 0 0 5.86785)
(6.03919 0 0 0 6.03919 0 0 0 6.03919)
(6.03158 0 0 0 6.03158 0 0 0 6.03158)
(5.87863 0 0 0 5.87863 0 0 0 5.87863)
(5.63268 0 0 0 5.63268 0 0 0 5.63268)
(5.3369 0 0 0 5.3369 0 0 0 5.3369)
(5.0248 0 0 0 5.0248 0 0 0 5.0248)
(4.72694 0 0 0 4.72694 0 0 0 4.72694)
(4.46485 0 0 0 4.46485 0 0 0 4.46485)
(4.23538 0 0 0 4.23538 0 0 0 4.23538)
(4.00464 0 0 0 4.00464 0 0 0 4.00464)
(3.72749 0 0 0 3.72749 0 0 0 3.72749)
(3.38794 0 0 0 3.38794 0 0 0 3.38794)
(3.02532 0 0 0 3.02532 0 0 0 3.02532)
(2.71456 0 0 0 2.71456 0 0 0 2.71456)
(2.52061 0 0 0 2.52061 0 0 0 2.52061)
(2.47038 0 0 0 2.47038 0 0 0 2.47038)
(2.54787 0 0 0 2.54787 0 0 0 2.54787)
(2.69512 0 0 0 2.69512 0 0 0 2.69512)
(2.82412 0 0 0 2.82412 0 0 0 2.82412)
(2.85784 0 0 0 2.85784 0 0 0 2.85784)
(2.77693 0 0 0 2.77693 0 0 0 2.77693)
(2.61765 0 0 0 2.61765 0 0 0 2.61765)
(2.424 0 0 0 2.424 0 0 0 2.424)
(2.21221 0 0 0 2.21221 0 0 0 2.21221)
(1.97776 0 0 0 1.97776 0 0 0 1.97776)
(1.72576 0 0 0 1.72576 0 0 0 1.72576)
(1.48671 0 0 0 1.48671 0 0 0 1.48671)
(1.30083 0 0 0 1.30083 0 0 0 1.30083)
(1.19306 0 0 0 1.19306 0 0 0 1.19306)
(1.16308 0 0 0 1.16308 0 0 0 1.16308)
(1.18514 0 0 0 1.18514 0 0 0 1.18514)
(1.21033 0 0 0 1.21033 0 0 0 1.21033)
(1.18451 0 0 0 1.18451 0 0 0 1.18451)
(1.08673 0 0 0 1.08673 0 0 0 1.08673)
(0.947223 0 0 0 0.947223 0 0 0 0.947223)
(0.816784 0 0 0 0.816784 0 0 0 0.816784)
(0.72838 0 0 0 0.72838 0 0 0 0.72838)
(0.688744 0 0 0 0.688744 0 0 0 0.688744)
(0.687582 0 0 0 0.687582 0 0 0 0.687582)
(0.705571 0 0 0 0.705571 0 0 0 0.705571)
(0.7204 0 0 0 0.7204 0 0 0 0.7204)
(0.714919 0 0 0 0.714919 0 0 0 0.714919)
(0.683858 0 0 0 0.683858 0 0 0 0.683858)
(0.633088 0 0 0 0.633088 0 0 0 0.633088)
(0.573374 0 0 0 0.573374 0 0 0 0.573374)
(0.515006 0 0 0 0.515006 0 0 0 0.515006)
(0.465657 0 0 0 0.465657 0 0 0 0.465657)
(0.429894 0 0 0 0.429894 0 0 0 0.429894)
(0.409017 0 0 0 0.409017 0 0 0 0.409017)
(0.401134 0 0 0 0.401134 0 0 0 0.401134)
(0.401868 0 0 0 0.401868 0 0 0 0.401868)
(0.406286 0 0 0 0.406286 0 0 0 0.406286)
(0.411875 0 0 0 0.411875 0 0 0 0.411875)
(0.420474 0 0 0 0.420474 0 0 0 0.420474)
(0.436943 0 0 0 0.436943 0 0 0 0.436943)
(0.464924 0 0 0 0.464924 0 0 0 0.464924)
(0.50203 0 0 0 0.50203 0 0 0 0.50203)
(0.537377 0 0 0 0.537377 0 0 0 0.537377)
(0.555906 0 0 0 0.555906 0 0 0 0.555906)
(0.550148 0 0 0 0.550148 0 0 0 0.550148)
(0.528382 0 0 0 0.528382 0 0 0 0.528382)
(0.508632 0 0 0 0.508632 0 0 0 0.508632)
(0.505929 0 0 0 0.505929 0 0 0 0.505929)
(0.52466 0 0 0 0.52466 0 0 0 0.52466)
(0.556599 0 0 0 0.556599 0 0 0 0.556599)
(0.583485 0 0 0 0.583485 0 0 0 0.583485)
(0.587919 0 0 0 0.587919 0 0 0 0.587919)
(0.567884 0 0 0 0.567884 0 0 0 0.567884)
(0.538537 0 0 0 0.538537 0 0 0 0.538537)
(0.519112 0 0 0 0.519112 0 0 0 0.519112)
(0.520879 0 0 0 0.520879 0 0 0 0.520879)
(0.543729 0 0 0 0.543729 0 0 0 0.543729)
(0.57741 0 0 0 0.57741 0 0 0 0.57741)
(0.606154 0 0 0 0.606154 0 0 0 0.606154)
(0.617826 0 0 0 0.617826 0 0 0 0.617826)
(0.61184 0 0 0 0.61184 0 0 0 0.61184)
(0.597784 0 0 0 0.597784 0 0 0 0.597784)
(0.587298 0 0 0 0.587298 0 0 0 0.587298)
(0.588155 0 0 0 0.588155 0 0 0 0.588155)
(0.603841 0 0 0 0.603841 0 0 0 0.603841)
(0.636046 0 0 0 0.636046 0 0 0 0.636046)
(0.686816 0 0 0 0.686816 0 0 0 0.686816)
(0.758354 0 0 0 0.758354 0 0 0 0.758354)
(0.84992 0 0 0 0.84992 0 0 0 0.84992)
(0.953262 0 0 0 0.953262 0 0 0 0.953262)
(1.05067 0 0 0 1.05067 0 0 0 1.05067)
(1.1207 0 0 0 1.1207 0 0 0 1.1207)
(1.15074 0 0 0 1.15074 0 0 0 1.15074)
(1.14565 0 0 0 1.14565 0 0 0 1.14565)
(1.12393 0 0 0 1.12393 0 0 0 1.12393)
(1.10635 0 0 0 1.10635 0 0 0 1.10635)
(1.10781 0 0 0 1.10781 0 0 0 1.10781)
(1.13562 0 0 0 1.13562 0 0 0 1.13562)
(1.19064 0 0 0 1.19064 0 0 0 1.19064)
(1.26708 0 0 0 1.26708 0 0 0 1.26708)
(1.34968 0 0 0 1.34968 0 0 0 1.34968)
(1.41171 0 0 0 1.41171 0 0 0 1.41171)
(1.42155 0 0 0 1.42155 0 0 0 1.42155)
(1.3614 0 0 0 1.3614 0 0 0 1.3614)
(1.24482 0 0 0 1.24482 0 0 0 1.24482)
(1.11185 0 0 0 1.11185 0 0 0 1.11185)
(1.00473 0 0 0 1.00473 0 0 0 1.00473)
(0.949017 0 0 0 0.949017 0 0 0 0.949017)
(0.950566 0 0 0 0.950566 0 0 0 0.950566)
(0.998161 0 0 0 0.998161 0 0 0 0.998161)
(1.06427 0 0 0 1.06427 0 0 0 1.06427)
(1.11096 0 0 0 1.11096 0 0 0 1.11096)
(1.10957 0 0 0 1.10957 0 0 0 1.10957)
(1.06117 0 0 0 1.06117 0 0 0 1.06117)
(0.993832 0 0 0 0.993832 0 0 0 0.993832)
(0.940165 0 0 0 0.940165 0 0 0 0.940165)
(0.920062 0 0 0 0.920062 0 0 0 0.920062)
(0.937096 0 0 0 0.937096 0 0 0 0.937096)
(0.980708 0 0 0 0.980708 0 0 0 0.980708)
(1.02914 0 0 0 1.02914 0 0 0 1.02914)
(1.05565 0 0 0 1.05565 0 0 0 1.05565)
(1.03958 0 0 0 1.03958 0 0 0 1.03958)
(0.975849 0 0 0 0.975849 0 0 0 0.975849)
(0.875251 0 0 0 0.875251 0 0 0 0.875251)
(0.756331 0 0 0 0.756331 0 0 0 0.756331)
(0.636653 0 0 0 0.636653 0 0 0 0.636653)
(0.528489 0 0 0 0.528489 0 0 0 0.528489)
(0.438466 0 0 0 0.438466 0 0 0 0.438466)
(0.368815 0 0 0 0.368815 0 0 0 0.368815)
(0.318794 0 0 0 0.318794 0 0 0 0.318794)
(0.285898 0 0 0 0.285898 0 0 0 0.285898)
(0.266713 0 0 0 0.266713 0 0 0 0.266713)
(0.257433 0 0 0 0.257433 0 0 0 0.257433)
(0.254214 0 0 0 0.254214 0 0 0 0.254214)
(0.253695 0 0 0 0.253695 0 0 0 0.253695)
(0.253657 0 0 0 0.253657 0 0 0 0.253657)
(0.253325 0 0 0 0.253325 0 0 0 0.253325)
(0.252883 0 0 0 0.252883 0 0 0 0.252883)
(0.252504 0 0 0 0.252504 0 0 0 0.252504)
(0.251775 0 0 0 0.251775 0 0 0 0.251775)
(0.250118 0 0 0 0.250118 0 0 0 0.250118)
(0.247998 0 0 0 0.247998 0 0 0 0.247998)
(0.24785 0 0 0 0.24785 0 0 0 0.24785)
(0.253785 0 0 0 0.253785 0 0 0 0.253785)
(0.270248 0 0 0 0.270248 0 0 0 0.270248)
(0.300266 0 0 0 0.300266 0 0 0 0.300266)