/*--------------------------------*- C++ -*----------------------------------*\
  =========                 |
  \\      /  F ield         | OpenFOAM: The Open Source CFD Toolbox
   \\    /   O peration     | Website:  https://openfoam.org
    \\  /    A nd           | Version:  6
     \\/     M anipulation  |
\*---------------------------------------------------------------------------*/
FoamFile
{
    version     2.0;
    format      ascii;
    class       surfaceScalarField;
    location    "1.5";
    object      phi;
}
// * * * * * * * * * * * * * * * * * * * * * * * * * * * * * * * * * * * * * //

dimensions      [0 3 -1 0 0 0 0];

internalField   nonuniform List<scalar> 
31720
(
5.00171e-06
-1.70692e-09
5.00386e-06
-2.15823e-09
5.00689e-06
-3.02912e-09
5.01114e-06
-4.24212e-09
5.01678e-06
-5.64719e-09
5.02377e-06
-6.98786e-09
5.03162e-06
-7.85026e-09
5.03925e-06
-7.62921e-09
5.04477e-06
-5.51581e-09
5.04533e-06
-5.61649e-10
5.03716e-06
8.1669e-09
5.0164e-06
2.07621e-08
4.97791e-06
3.84931e-08
4.91736e-06
6.05472e-08
4.83103e-06
8.63338e-08
4.71607e-06
1.14953e-07
4.57093e-06
1.45147e-07
4.39579e-06
1.7514e-07
4.19332e-06
2.02469e-07
3.96934e-06
2.23981e-07
3.73311e-06
2.36226e-07
3.66378e-06
6.9329e-08
3.59845e-06
6.53293e-08
3.54168e-06
5.67684e-08
3.49761e-06
4.4068e-08
3.46933e-06
2.8288e-08
3.45853e-06
1.07985e-08
3.46548e-06
-6.95497e-09
3.48907e-06
-2.35864e-08
3.52695e-06
-3.78813e-08
3.57592e-06
-4.89662e-08
3.63245e-06
-5.65355e-08
3.87352e-06
-2.41066e-07
4.1077e-06
-2.34184e-07
4.32612e-06
-2.18421e-07
4.52291e-06
-1.96783e-07
4.69493e-06
-1.72022e-07
4.84119e-06
-1.46259e-07
4.96213e-06
-1.20947e-07
5.05914e-06
-9.70083e-08
5.13414e-06
-7.49984e-08
5.18936e-06
-5.52182e-08
5.22465e-06
-3.52915e-08
5.24458e-06
-1.99328e-08
5.25102e-06
-6.43985e-09
5.24554e-06
5.48015e-09
5.22943e-06
1.61124e-08
5.20372e-06
2.57114e-08
5.1692e-06
3.45181e-08
5.12639e-06
4.28072e-08
5.07547e-06
5.09277e-08
5.01616e-06
5.93017e-08
4.94781e-06
6.83546e-08
4.88862e-06
5.919e-08
4.81868e-06
6.99361e-08
4.73752e-06
8.11608e-08
4.64509e-06
9.24347e-08
4.54183e-06
1.03259e-07
4.42867e-06
1.13162e-07
4.30692e-06
1.21741e-07
4.17824e-06
1.2868e-07
4.04451e-06
1.33737e-07
3.90776e-06
1.36745e-07
3.89159e-06
1.61696e-08
3.87479e-06
1.68001e-08
3.85758e-06
1.72105e-08
3.84015e-06
1.7429e-08
3.82268e-06
1.74721e-08
3.80536e-06
1.73253e-08
3.78843e-06
1.69238e-08
3.77229e-06
1.61394e-08
3.75751e-06
1.4782e-08
3.74488e-06
1.26275e-08
3.73541e-06
9.4766e-09
3.68197e-06
5.34332e-08
3.63974e-06
4.22333e-08
3.61469e-06
2.50525e-08
3.61122e-06
3.47062e-09
3.63189e-06
-2.06711e-08
3.67736e-06
-4.54768e-08
3.74642e-06
-6.90562e-08
3.83596e-06
-8.95444e-08
3.94117e-06
-1.05205e-07
4.05587e-06
-1.14697e-07
4.13508e-06
-7.9213e-08
4.21285e-06
-7.77679e-08
4.28596e-06
-7.31084e-08
4.35237e-06
-6.64151e-08
4.41114e-06
-5.87681e-08
4.46214e-06
-5.10018e-08
4.50584e-06
-4.37017e-08
4.54311e-06
-3.72704e-08
4.57511e-06
-3.19937e-08
4.60317e-06
-2.80591e-08
4.62868e-06
-2.55132e-08
4.68078e-06
-5.21017e-08
4.73359e-06
-5.2811e-08
4.78837e-06
-5.47757e-08
4.84545e-06
-5.70817e-08
4.90436e-06
-5.89125e-08
4.96405e-06
-5.96901e-08
5.02317e-06
-5.91206e-08
5.08034e-06
-5.71709e-08
5.13435e-06
-5.40041e-08
5.18423e-06
-4.98887e-08
5.2347e-06
-5.04631e-08
5.27984e-06
-4.51467e-08
5.31925e-06
-3.94105e-08
5.35253e-06
-3.32798e-08
5.37924e-06
-2.67067e-08
5.39879e-06
-1.95445e-08
5.41027e-06
-1.14897e-08
5.41229e-06
-2.01244e-09
5.4026e-06
9.68262e-09
5.37799e-06
2.46171e-08
5.33411e-06
4.38765e-08
5.27817e-06
5.5943e-08
5.19335e-06
8.48172e-08
5.07535e-06
1.17998e-07
4.92044e-06
1.5491e-07
4.72591e-06
1.94535e-07
4.4906e-06
2.35306e-07
4.21573e-06
2.74873e-07
3.90586e-06
3.09871e-07
3.56993e-06
3.35924e-07
3.22173e-06
3.48209e-07
3.16394e-06
5.77813e-08
3.11514e-06
4.8803e-08
3.07979e-06
3.53494e-08
3.06233e-06
1.7462e-08
3.06621e-06
-3.875e-09
3.0932e-06
-2.6992e-08
3.14296e-06
-4.97588e-08
3.21272e-06
-6.97658e-08
3.29731e-06
-8.4591e-08
3.3896e-06
-9.22879e-08
3.48168e-06
-9.20802e-08
3.70452e-06
-2.22841e-07
3.90615e-06
-2.01631e-07
4.07725e-06
-1.71098e-07
4.21347e-06
-1.36223e-07
4.31433e-06
-1.00855e-07
4.38166e-06
-6.73326e-08
4.41843e-06
-3.67692e-08
4.42799e-06
-9.5637e-09
4.41383e-06
1.41641e-08
4.37945e-06
3.4376e-08
4.26624e-06
1.1321e-07
4.14433e-06
1.21918e-07
4.0203e-06
1.24029e-07
3.89864e-06
1.21658e-07
3.78167e-06
1.16967e-07
3.66993e-06
1.11745e-07
3.56271e-06
1.07213e-07
3.45872e-06
1.03997e-07
3.35651e-06
1.0221e-07
3.25491e-06
1.01593e-07
3.15323e-06
1.01684e-07
3.06773e-06
8.54996e-08
2.9819e-06
8.58317e-08
2.89578e-06
8.61157e-08
2.80928e-06
8.65026e-08
2.72206e-06
8.72225e-08
2.63356e-06
8.84958e-08
2.54308e-06
9.04865e-08
2.44978e-06
9.32924e-08
2.35282e-06
9.69613e-08
2.2513e-06
1.01522e-07
2.20671e-06
4.45938e-08
2.15617e-06
5.05315e-08
2.09916e-06
5.70146e-08
2.03502e-06
6.41353e-08
1.96311e-06
7.1915e-08
1.88288e-06
8.02299e-08
1.79416e-06
8.87227e-08
1.69744e-06
9.67161e-08
1.59428e-06
1.03164e-07
1.48757e-06
1.06704e-07
1.38168e-06
1.05897e-07
1.35847e-06
2.32053e-08
1.34289e-06
1.55807e-08
1.33623e-06
6.65757e-09
1.33934e-06
-3.10808e-09
1.35231e-06
-1.29727e-08
1.37433e-06
-2.20212e-08
1.40363e-06
-2.92948e-08
1.4376e-06
-3.39703e-08
1.47322e-06
-3.56245e-08
1.50774e-06
-3.45164e-08
1.94339e-06
-4.35654e-07
2.35629e-06
-4.12896e-07
2.73132e-06
-3.75026e-07
3.05942e-06
-3.28109e-07
3.337e-06
-2.77576e-07
3.5643e-06
-2.27297e-07
3.74378e-06
-1.79478e-07
3.87876e-06
-1.34981e-07
3.9725e-06
-9.37417e-08
4.02762e-06
-5.51263e-08
-1.81846e-08
5.00125e-06
-2.96046e-09
5.00299e-06
-3.89738e-09
5.00568e-06
-5.71735e-09
5.00973e-06
-8.29078e-09
5.01544e-06
-1.1359e-08
5.02291e-06
-1.44526e-08
5.03184e-06
-1.67857e-08
5.04136e-06
-1.715e-08
5.04972e-06
-1.38712e-08
5.05406e-06
-4.89715e-09
5.05036e-06
1.18665e-08
5.03413e-06
3.69891e-08
4.99996e-06
7.26631e-08
4.94314e-06
1.17362e-07
4.85964e-06
1.69835e-07
4.74627e-06
2.2833e-07
4.60092e-06
2.90494e-07
4.42311e-06
3.52945e-07
4.21483e-06
4.10754e-07
3.98158e-06
4.5723e-07
3.73321e-06
4.84591e-07
3.65978e-06
1.42762e-07
3.58989e-06
1.3522e-07
3.52898e-06
1.17676e-07
3.48183e-06
9.12156e-08
3.45184e-06
5.82855e-08
3.44077e-06
2.18613e-08
3.44885e-06
-1.5032e-08
3.47477e-06
-4.95095e-08
3.51587e-06
-7.89727e-08
3.56835e-06
-1.01448e-07
3.62799e-06
-1.16182e-07
3.8804e-06
-4.93473e-07
4.12346e-06
-4.77248e-07
4.34776e-06
-4.42717e-07
4.54767e-06
-3.96689e-07
4.72069e-06
-3.45048e-07
4.8665e-06
-2.92067e-07
4.98607e-06
-2.40519e-07
5.08115e-06
-1.92088e-07
5.15392e-06
-1.47768e-07
5.20682e-06
-1.08115e-07
5.24001e-06
-6.84821e-08
5.25808e-06
-3.79997e-08
5.26294e-06
-1.13081e-08
5.25618e-06
1.22471e-08
5.23903e-06
3.32596e-08
5.21252e-06
5.22154e-08
5.17749e-06
6.95532e-08
5.13451e-06
8.57833e-08
5.08384e-06
1.01602e-07
5.02522e-06
1.17924e-07
4.95783e-06
1.3574e-07
4.89937e-06
1.17656e-07
4.82991e-06
1.39393e-07
4.7488e-06
1.62272e-07
4.65591e-06
1.85319e-07
4.55173e-06
2.07441e-07
4.43725e-06
2.27646e-07
4.31386e-06
2.45123e-07
4.1833e-06
2.59242e-07
4.04752e-06
2.69523e-07
3.90864e-06
2.75622e-07
3.89222e-06
3.25852e-08
3.8752e-06
3.38208e-08
3.8578e-06
3.46128e-08
3.8402e-06
3.50332e-08
3.82253e-06
3.51343e-08
3.80495e-06
3.49055e-08
3.78765e-06
3.42305e-08
3.77093e-06
3.28515e-08
3.75536e-06
3.03609e-08
3.74173e-06
2.62515e-08
3.73116e-06
2.00497e-08
3.67077e-06
1.13819e-07
3.62256e-06
9.04479e-08
3.5931e-06
5.45057e-08
3.58707e-06
9.50126e-09
3.60708e-06
-4.06785e-08
3.65378e-06
-9.21802e-08
3.72593e-06
-1.41204e-07
3.8203e-06
-1.83916e-07
3.93168e-06
-2.1658e-07
4.05312e-06
-2.36142e-07
4.13652e-06
-1.62616e-07
4.21751e-06
-1.5875e-07
4.29265e-06
-1.48251e-07
4.36002e-06
-1.33784e-07
4.41891e-06
-1.17655e-07
4.46944e-06
-1.01537e-07
4.51227e-06
-8.65344e-08
4.54839e-06
-7.33862e-08
4.57904e-06
-6.26454e-08
4.60571e-06
-5.47298e-08
4.63e-06
-4.98051e-08
4.68007e-06
-1.0217e-07
4.73163e-06
-1.04367e-07
4.78606e-06
-1.0921e-07
4.84362e-06
-1.14639e-07
4.90358e-06
-1.18878e-07
4.96462e-06
-1.20727e-07
5.02512e-06
-1.19621e-07
5.08351e-06
-1.15559e-07
5.13846e-06
-1.08957e-07
5.18902e-06
-1.0045e-07
5.24001e-06
-1.01455e-07
5.28558e-06
-9.07134e-08
5.32538e-06
-7.92154e-08
5.35911e-06
-6.7002e-08
5.3864e-06
-5.40024e-08
5.40684e-06
-3.99818e-08
5.41975e-06
-2.44017e-08
5.42398e-06
-6.24265e-09
5.41754e-06
1.61259e-08
5.39725e-06
4.49092e-08
5.35857e-06
8.25539e-08
5.30704e-06
1.0747e-07
5.22653e-06
1.65328e-07
5.11227e-06
2.32265e-07
4.96007e-06
3.07107e-07
4.76668e-06
3.87924e-07
4.53017e-06
4.71814e-07
4.25073e-06
5.54317e-07
3.93191e-06
6.28688e-07
3.58222e-06
6.85616e-07
3.21624e-06
7.14185e-07
3.15497e-06
1.19059e-07
3.10169e-06
1.02081e-07
3.0619e-06
7.51327e-08
3.04099e-06
3.83734e-08
3.04309e-06
-5.96992e-09
3.07043e-06
-5.43344e-08
3.12295e-06
-1.02277e-07
3.1979e-06
-1.44713e-07
3.28962e-06
-1.7631e-07
3.38981e-06
-1.9248e-07
3.48884e-06
-1.91114e-07
3.72573e-06
-4.5973e-07
3.93668e-06
-4.12584e-07
4.11213e-06
-3.4654e-07
4.24884e-06
-2.72939e-07
4.34785e-06
-1.99864e-07
4.41222e-06
-1.31706e-07
4.44564e-06
-7.01806e-08
4.45172e-06
-1.56496e-08
4.43404e-06
3.1844e-08
4.39627e-06
7.21507e-08
4.27495e-06
2.34525e-07
4.14644e-06
2.50434e-07
4.01793e-06
2.52539e-07
3.89395e-06
2.45635e-07
3.77645e-06
2.34464e-07
3.66539e-06
2.22802e-07
3.5595e-06
2.13109e-07
3.45693e-06
2.06563e-07
3.35589e-06
2.03253e-07
3.25501e-06
2.02476e-07
3.15358e-06
2.03109e-07
3.06806e-06
1.71017e-07
2.98218e-06
1.71712e-07
2.89617e-06
1.72128e-07
2.81e-06
1.72672e-07
2.72333e-06
1.73892e-07
2.63555e-06
1.76274e-07
2.54588e-06
1.80158e-07
2.45345e-06
1.85722e-07
2.35738e-06
1.93031e-07
2.2568e-06
2.02105e-07
2.21264e-06
8.87502e-08
2.16266e-06
1.00518e-07
2.10628e-06
1.13392e-07
2.0428e-06
1.27611e-07
1.97142e-06
1.43295e-07
1.89137e-06
1.60282e-07
1.80215e-06
1.77945e-07
1.70389e-06
1.94978e-07
1.59782e-06
2.09235e-07
1.48676e-06
2.17757e-07
1.37544e-06
2.17218e-07
1.35085e-06
4.78029e-08
1.33397e-06
3.24598e-08
1.32647e-06
1.41577e-08
1.32948e-06
-6.11716e-09
1.34326e-06
-2.67617e-08
1.36706e-06
-4.58172e-08
1.39895e-06
-6.11876e-08
1.43594e-06
-7.0962e-08
1.47433e-06
-7.40113e-08
1.5106e-06
-7.07878e-08
1.96615e-06
-8.91204e-07
2.39416e-06
-8.40903e-07
2.77823e-06
-7.59098e-07
3.10996e-06
-6.59833e-07
3.38728e-06
-5.549e-07
3.61212e-06
-4.52135e-07
3.78827e-06
-3.55633e-07
3.92e-06
-2.66703e-07
4.01111e-06
-1.8486e-07
4.06457e-06
-1.08579e-07
-3.57966e-08
5.00032e-06
-3.27826e-09
5.00117e-06
-4.75238e-09
5.00311e-06
-7.65125e-09
5.00666e-06
-1.18446e-08
5.01235e-06
-1.70456e-08
5.02058e-06
-2.26781e-08
5.03148e-06
-2.76878e-08
5.04464e-06
-3.03156e-08
5.05869e-06
-2.79213e-08
5.07082e-06
-1.70231e-08
5.07649e-06
6.19087e-09
5.0698e-06
4.368e-08
5.04466e-06
9.78088e-08
4.99562e-06
1.66404e-07
4.91814e-06
2.47313e-07
4.80843e-06
3.38039e-07
4.66337e-06
4.35554e-07
4.48092e-06
5.35393e-07
4.2613e-06
6.30373e-07
4.00894e-06
7.09595e-07
3.73462e-06
7.58913e-07
3.65224e-06
2.25142e-07
3.57235e-06
2.15113e-07
3.50252e-06
1.87501e-07
3.4489e-06
1.44833e-07
3.41541e-06
9.17769e-08
3.40388e-06
3.33933e-08
3.41437e-06
-2.55245e-08
3.44531e-06
-8.04468e-08
3.49339e-06
-1.27052e-07
3.55361e-06
-1.61671e-07
3.62003e-06
-1.82595e-07
3.89663e-06
-7.70072e-07
4.158e-06
-7.38619e-07
4.39379e-06
-6.78511e-07
4.59931e-06
-6.0221e-07
4.77367e-06
-5.19411e-07
4.91805e-06
-4.36441e-07
5.0345e-06
-3.56977e-07
5.12547e-06
-2.83055e-07
5.19357e-06
-2.15872e-07
5.24164e-06
-1.5618e-07
5.27049e-06
-9.7335e-08
5.28477e-06
-5.22765e-08
5.2865e-06
-1.30383e-08
5.27719e-06
2.15578e-08
5.25798e-06
5.24631e-08
5.22986e-06
8.03373e-08
5.19372e-06
1.05696e-07
5.15033e-06
1.2917e-07
5.10016e-06
1.51774e-07
5.04303e-06
1.75053e-07
4.97787e-06
2.00901e-07
4.9211e-06
1.74424e-07
4.85279e-06
2.07708e-07
4.77184e-06
2.43217e-07
4.67803e-06
2.79127e-07
4.57193e-06
3.1354e-07
4.45472e-06
3.44858e-07
4.32798e-06
3.71862e-07
4.19358e-06
3.93642e-07
4.05361e-06
4.09491e-07
3.91038e-06
4.1886e-07
3.89346e-06
4.95036e-08
3.87599e-06
5.12848e-08
3.85822e-06
5.23867e-08
3.8403e-06
5.29572e-08
3.8223e-06
5.31262e-08
3.80428e-06
5.29317e-08
3.78627e-06
5.22413e-08
3.76844e-06
5.06753e-08
3.75125e-06
4.75589e-08
3.73553e-06
4.19677e-08
3.72262e-06
3.29628e-08
3.6474e-06
1.89034e-07
3.58662e-06
1.51234e-07
3.5481e-06
9.30213e-08
3.53689e-06
2.0707e-08
3.55558e-06
-5.9364e-08
3.60476e-06
-1.41362e-07
3.68322e-06
-2.19663e-07
3.78764e-06
-2.88335e-07
3.91211e-06
-3.41055e-07
4.04806e-06
-3.72085e-07
4.14039e-06
-2.54948e-07
4.22801e-06
-2.46366e-07
4.30712e-06
-2.27361e-07
4.37615e-06
-2.02814e-07
4.43502e-06
-1.76532e-07
4.48444e-06
-1.50958e-07
4.52542e-06
-1.27512e-07
4.55913e-06
-1.07095e-07
4.58696e-06
-9.04719e-08
4.61064e-06
-7.84097e-08
4.63225e-06
-7.14181e-08
4.67787e-06
-1.47795e-07
4.72678e-06
-1.53275e-07
4.78063e-06
-1.63059e-07
4.83938e-06
-1.73386e-07
4.90173e-06
-1.81234e-07
4.96573e-06
-1.8472e-07
5.02918e-06
-1.83078e-07
5.09011e-06
-1.76487e-07
5.14697e-06
-1.65814e-07
5.19881e-06
-1.52289e-07
5.25076e-06
-1.53404e-07
5.29708e-06
-1.37037e-07
5.3376e-06
-1.19735e-07
5.37211e-06
-1.0151e-07
5.40042e-06
-8.23191e-08
5.42242e-06
-6.19786e-08
5.43791e-06
-3.98928e-08
5.44635e-06
-1.46823e-08
5.44632e-06
1.61545e-08
5.43489e-06
5.63398e-08
5.4071e-06
1.10341e-07
5.3649e-06
1.49674e-07
5.29347e-06
2.36761e-07
5.18711e-06
3.38625e-07
5.04089e-06
4.53329e-07
4.85057e-06
5.78238e-07
4.61267e-06
7.09712e-07
4.3251e-06
8.4189e-07
3.98884e-06
9.64948e-07
3.61079e-06
1.06367e-06
3.20688e-06
1.11809e-06
3.13799e-06
1.87955e-07
3.07474e-06
1.6533e-07
3.02515e-06
1.24727e-07
2.99665e-06
6.68688e-08
2.99472e-06
-4.04368e-09
3.02249e-06
-8.20983e-08
3.08051e-06
-1.60303e-07
3.1663e-06
-2.305e-07
3.27345e-06
-2.83457e-07
3.39117e-06
-3.10209e-07
3.50564e-06
-3.05584e-07
3.77288e-06
-7.26962e-07
4.00273e-06
-6.42436e-07
4.18573e-06
-5.29538e-07
4.32192e-06
-4.09129e-07
4.41601e-06
-2.93955e-07
4.47375e-06
-1.89448e-07
4.50017e-06
-9.65971e-08
4.49922e-06
-1.46983e-08
4.47435e-06
5.67108e-08
4.42942e-06
1.17084e-07
4.29086e-06
3.73079e-07
4.14854e-06
3.92754e-07
4.01102e-06
3.90059e-07
3.88278e-06
3.73879e-07
3.76479e-06
3.52454e-07
3.6557e-06
3.31888e-07
3.55295e-06
3.1586e-07
3.45362e-06
3.05892e-07
3.35511e-06
3.01761e-07
3.25564e-06
3.01951e-07
3.15454e-06
3.04207e-07
3.06876e-06
2.568e-07
2.9826e-06
2.57869e-07
2.89671e-06
2.58014e-07
2.81122e-06
2.58167e-07
2.72571e-06
2.59397e-07
2.63944e-06
2.62552e-07
2.55145e-06
2.68149e-07
2.46076e-06
2.76407e-07
2.36646e-06
2.87334e-07
2.26771e-06
3.00854e-07
2.22441e-06
1.32047e-07
2.17553e-06
1.49397e-07
2.1205e-06
1.68423e-07
2.05849e-06
1.89624e-07
1.98841e-06
2.13371e-07
1.90903e-06
2.39658e-07
1.81918e-06
2.67796e-07
1.71815e-06
2.96015e-07
1.60634e-06
3.21041e-07
1.48623e-06
3.37872e-07
1.36318e-06
3.40261e-07
1.3355e-06
7.54819e-08
1.31566e-06
5.22978e-08
1.30619e-06
2.36307e-08
1.30883e-06
-8.75662e-09
1.32421e-06
-4.21396e-08
1.35169e-06
-7.32984e-08
1.38918e-06
-9.86765e-08
1.4329e-06
-1.14679e-07
1.47756e-06
-1.18671e-07
1.51769e-06
-1.10924e-07
2.01645e-06
-1.38997e-06
2.47597e-06
-1.30041e-06
2.8775e-06
-1.16063e-06
3.21489e-06
-9.97225e-07
3.49005e-06
-8.30055e-07
3.70862e-06
-6.70709e-07
3.8772e-06
-5.24216e-07
4.00184e-06
-3.9134e-07
4.08739e-06
-2.70416e-07
4.13735e-06
-1.58533e-07
-5.22195e-08
4.99884e-06
-2.12171e-09
4.99828e-06
-4.18438e-09
4.99892e-06
-8.29227e-09
5.00146e-06
-1.43912e-08
5.00672e-06
-2.23006e-08
5.01557e-06
-3.15283e-08
5.02885e-06
-4.09729e-08
5.04704e-06
-4.85031e-08
5.06959e-06
-5.04763e-08
5.09403e-06
-4.14634e-08
5.11503e-06
-1.48011e-08
5.12393e-06
3.47711e-08
5.11325e-06
1.08487e-07
5.07653e-06
2.03131e-07
5.00886e-06
3.14975e-07
4.90595e-06
4.40958e-07
4.76321e-06
5.78291e-07
4.5759e-06
7.22698e-07
4.34053e-06
8.6575e-07
4.05826e-06
9.91863e-07
3.74027e-06
1.0769e-06
3.64221e-06
3.23202e-07
3.54473e-06
3.12587e-07
3.45985e-06
2.72383e-07
3.39585e-06
2.08838e-07
3.35703e-06
1.30596e-07
3.34496e-06
4.54589e-08
3.35945e-06
-4.00126e-08
3.39871e-06
-1.19702e-07
3.45877e-06
-1.87116e-07
3.53269e-06
-2.3559e-07
3.61091e-06
-2.60818e-07
3.92808e-06
-1.08724e-06
4.2181e-06
-1.02865e-06
4.47009e-06
-9.30496e-07
4.68211e-06
-8.14228e-07
4.85664e-06
-6.93945e-07
4.99751e-06
-5.77309e-07
5.10842e-06
-4.67893e-07
5.19265e-06
-3.67284e-07
5.25327e-06
-2.76484e-07
5.29358e-06
-1.9649e-07
5.31555e-06
-1.19308e-07
5.32401e-06
-6.07333e-08
5.32109e-06
-1.01267e-08
5.30809e-06
3.45587e-08
5.28586e-06
7.46976e-08
5.25522e-06
1.10975e-07
5.21719e-06
1.43723e-07
5.17294e-06
1.73427e-07
5.12344e-06
2.01273e-07
5.06888e-06
2.29611e-07
5.00786e-06
2.61918e-07
4.95439e-06
2.27901e-07
4.8883e-06
2.73799e-07
4.80775e-06
3.23761e-07
4.71245e-06
3.74432e-07
4.60325e-06
4.22735e-07
4.48173e-06
4.66384e-07
4.34976e-06
5.03826e-07
4.20943e-06
5.33972e-07
4.06298e-06
5.55938e-07
3.91294e-06
5.68902e-07
3.89524e-06
6.72064e-08
3.8771e-06
6.94279e-08
3.85879e-06
7.06922e-08
3.84047e-06
7.12823e-08
3.82211e-06
7.14815e-08
3.80359e-06
7.14541e-08
3.7847e-06
7.11275e-08
3.76533e-06
7.00494e-08
3.74565e-06
6.72317e-08
3.72652e-06
6.10978e-08
3.70968e-06
4.98098e-08
3.6096e-06
2.89111e-07
3.5284e-06
2.32431e-07
3.47579e-06
1.45639e-07
3.45682e-06
3.96695e-08
3.47358e-06
-7.61228e-08
3.52646e-06
-1.94239e-07
3.61455e-06
-3.07751e-07
3.73492e-06
-4.08705e-07
3.88109e-06
-4.87222e-07
4.04167e-06
-5.32672e-07
4.14897e-06
-3.62248e-07
4.24701e-06
-3.44406e-07
4.33166e-06
-3.12011e-07
4.40243e-06
-2.73581e-07
4.4606e-06
-2.34702e-07
4.50789e-06
-1.98249e-07
4.54584e-06
-1.65463e-07
4.57575e-06
-1.37008e-07
4.59902e-06
-1.13738e-07
4.61763e-06
-9.7019e-08
4.63452e-06
-8.8311e-08
4.67239e-06
-1.85668e-07
4.717e-06
-1.9788e-07
4.77031e-06
-2.16366e-07
4.83153e-06
-2.3461e-07
4.89825e-06
-2.47953e-07
4.96737e-06
-2.53838e-07
5.03577e-06
-2.51485e-07
5.10078e-06
-2.41496e-07
5.16049e-06
-2.25523e-07
5.21403e-06
-2.05822e-07
5.26712e-06
-2.06501e-07
5.31438e-06
-1.84293e-07
5.35582e-06
-1.61179e-07
5.3913e-06
-1.36985e-07
5.42076e-06
-1.11785e-07
5.44451e-06
-8.57209e-08
5.46312e-06
-5.85083e-08
5.47719e-06
-2.87483e-08
5.48651e-06
6.83462e-09
5.48889e-06
5.39543e-08
5.47883e-06
1.20403e-07
5.45199e-06
1.76518e-07
5.39533e-06
2.93418e-07
5.30181e-06
4.32145e-07
5.16579e-06
5.89347e-07
4.98204e-06
7.61988e-07
4.74485e-06
9.46905e-07
4.44816e-06
1.13859e-06
4.08756e-06
1.32555e-06
3.66521e-06
1.48602e-06
3.19759e-06
1.58571e-06
3.11536e-06
2.7018e-07
3.03414e-06
2.46556e-07
2.96729e-06
1.91576e-07
2.92574e-06
1.08418e-07
2.91667e-06
5.02476e-09
2.94428e-06
-1.09712e-07
3.01032e-06
-2.26335e-07
3.11334e-06
-3.33528e-07
3.24669e-06
-4.16807e-07
3.3958e-06
-4.59316e-07
3.53818e-06
-4.47963e-07
3.8574e-06
-1.04619e-06
4.11563e-06
-9.00658e-07
4.30614e-06
-7.20047e-07
4.43709e-06
-5.40084e-07
4.52051e-06
-3.77379e-07
4.5666e-06
-2.35536e-07
4.58207e-06
-1.12061e-07
4.57062e-06
-3.25739e-09
4.53472e-06
9.26133e-08
4.47801e-06
1.738e-07
4.31054e-06
5.40548e-07
4.14585e-06
5.57444e-07
3.99484e-06
5.41063e-07
3.86135e-06
5.0737e-07
3.74422e-06
4.69584e-07
3.63968e-06
4.36435e-07
3.54298e-06
4.12553e-07
3.44949e-06
3.99384e-07
3.3553e-06
3.9595e-07
3.25789e-06
3.99359e-07
3.1567e-06
4.05405e-07
3.06983e-06
3.43671e-07
2.98274e-06
3.4495e-07
2.89687e-06
3.43892e-07
2.81245e-06
3.42584e-07
2.72887e-06
3.42978e-07
2.64503e-06
3.46386e-07
2.5597e-06
3.53478e-07
2.47169e-06
3.64422e-07
2.37998e-06
3.79046e-07
2.28383e-06
3.97001e-07
2.24176e-06
1.74113e-07
2.19456e-06
1.96603e-07
2.1417e-06
2.21278e-07
2.08223e-06
2.49091e-07
2.0147e-06
2.80907e-07
1.93717e-06
3.17184e-07
1.8474e-06
3.57567e-07
1.74317e-06
4.00246e-07
1.62317e-06
4.41042e-07
1.48861e-06
4.72428e-07
1.34552e-06
4.8336e-07
1.31232e-06
1.08679e-07
1.287e-06
7.76188e-08
1.2738e-06
3.68238e-08
1.27545e-06
-1.04004e-08
1.29305e-06
-5.97416e-08
1.32631e-06
-1.0656e-07
1.37318e-06
-1.45541e-07
1.4289e-06
-1.70406e-07
1.4853e-06
-1.75069e-07
1.53233e-06
-1.57953e-07
2.10601e-06
-1.96364e-06
2.61575e-06
-1.81016e-06
3.04091e-06
-1.58579e-06
3.38206e-06
-1.33838e-06
3.64939e-06
-1.09739e-06
3.85511e-06
-8.7643e-07
4.01008e-06
-6.79181e-07
4.12276e-06
-5.04026e-07
4.19928e-06
-3.46929e-07
4.24366e-06
-2.02918e-07
-6.67676e-08
4.99678e-06
1.09692e-09
4.99417e-06
-1.57e-09
4.99282e-06
-6.94157e-09
4.99355e-06
-1.51274e-08
4.99749e-06
-2.62367e-08
5.00612e-06
-4.016e-08
5.02132e-06
-5.61715e-08
5.04506e-06
-7.22465e-08
5.07861e-06
-8.40169e-08
5.1207e-06
-8.35553e-08
5.16503e-06
-5.91343e-08
5.19765e-06
2.15294e-09
5.2079e-06
9.82364e-08
5.18837e-06
2.22659e-07
5.13485e-06
3.68497e-07
5.04328e-06
5.32527e-07
4.90762e-06
7.13954e-07
4.71896e-06
9.11359e-07
4.46664e-06
1.11807e-06
4.1433e-06
1.3152e-06
3.7565e-06
1.4637e-06
3.63159e-06
4.48107e-07
3.50453e-06
4.39652e-07
3.39631e-06
3.80604e-07
3.31761e-06
2.87541e-07
3.27189e-06
1.7631e-07
3.25949e-06
5.78584e-08
3.27976e-06
-6.02824e-08
3.33129e-06
-1.71233e-07
3.4103e-06
-2.6612e-07
3.50746e-06
-3.32754e-07
3.60579e-06
-3.5915e-07
3.98667e-06
-1.46812e-06
4.31626e-06
-1.35823e-06
4.58636e-06
-1.2006e-06
4.80239e-06
-1.03026e-06
4.97328e-06
-8.64833e-07
5.10693e-06
-7.10955e-07
5.20903e-06
-5.70002e-07
5.28345e-06
-4.41704e-07
5.33326e-06
-3.26291e-07
5.36216e-06
-2.25389e-07
5.37412e-06
-1.31274e-07
5.37461e-06
-6.12208e-08
5.36578e-06
-1.29302e-09
5.34823e-06
5.21052e-08
5.32214e-06
1.00794e-07
5.28797e-06
1.4514e-07
5.2469e-06
1.84795e-07
5.20078e-06
2.19541e-07
5.15178e-06
2.50279e-07
5.10119e-06
2.80199e-07
5.04756e-06
3.15548e-07
5.00028e-06
2.75177e-07
4.93826e-06
3.35824e-07
4.85842e-06
4.03595e-07
4.76075e-06
4.72106e-07
4.6469e-06
5.36582e-07
4.51917e-06
5.94117e-07
4.37991e-06
6.43085e-07
4.2314e-06
6.82484e-07
4.07595e-06
7.11385e-07
3.91628e-06
7.28569e-07
3.89746e-06
8.60277e-08
3.87836e-06
8.85284e-08
3.85938e-06
8.96716e-08
3.84066e-06
8.99985e-08
3.82208e-06
9.00635e-08
3.80326e-06
9.02755e-08
3.78362e-06
9.07653e-08
3.76251e-06
9.11631e-08
3.73952e-06
9.02209e-08
3.71524e-06
8.53818e-08
3.69213e-06
7.2919e-08
3.55292e-06
4.28317e-07
3.44161e-06
3.43741e-07
3.36982e-06
2.17434e-07
3.34103e-06
6.8455e-08
3.35547e-06
-9.05574e-08
3.41295e-06
-2.51721e-07
3.51359e-06
-4.08398e-07
3.6564e-06
-5.51513e-07
3.83563e-06
-6.66455e-07
4.03594e-06
-7.32973e-07
4.16681e-06
-4.93127e-07
4.27941e-06
-4.56998e-07
4.37009e-06
-4.02698e-07
4.44131e-06
-3.44795e-07
4.49705e-06
-2.90445e-07
4.54067e-06
-2.41872e-07
4.57429e-06
-1.99082e-07
4.59902e-06
-1.61739e-07
4.61574e-06
-1.30452e-07
4.62634e-06
-1.07617e-07
4.63518e-06
-9.7158e-08
4.66018e-06
-2.10666e-07
4.69851e-06
-2.36209e-07
4.75206e-06
-2.69915e-07
4.81819e-06
-3.00737e-07
4.89236e-06
-3.22128e-07
4.96972e-06
-3.31196e-07
5.04576e-06
-3.27528e-07
5.11676e-06
-3.1249e-07
5.18019e-06
-2.8896e-07
5.23538e-06
-2.61012e-07
5.28933e-06
-2.60448e-07
5.33749e-06
-2.32455e-07
5.38002e-06
-2.03703e-07
5.4165e-06
-1.73467e-07
5.44683e-06
-1.42114e-07
5.47172e-06
-1.10612e-07
5.49288e-06
-7.9671e-08
5.51277e-06
-4.86374e-08
5.53363e-06
-1.4022e-08
5.55534e-06
3.22403e-08
5.57211e-06
1.03638e-07
5.56889e-06
1.79738e-07
5.53406e-06
3.28246e-07
5.45901e-06
5.0719e-07
5.33843e-06
7.09928e-07
5.16696e-06
9.33461e-07
4.93653e-06
1.17733e-06
4.63512e-06
1.44e-06
4.24803e-06
1.71263e-06
3.76491e-06
1.96914e-06
3.19682e-06
2.1538e-06
3.09174e-06
3.75262e-07
2.97916e-06
3.59139e-07
2.88413e-06
2.86604e-07
2.82234e-06
1.70204e-07
2.80193e-06
2.54368e-08
2.82766e-06
-1.35441e-07
2.90312e-06
-3.01798e-07
3.03006e-06
-4.60468e-07
3.20418e-06
-5.90927e-07
3.40715e-06
-6.62286e-07
3.59947e-06
-6.40275e-07
4.00293e-06
-1.44965e-06
4.29624e-06
-1.19396e-06
4.4861e-06
-9.09907e-07
4.5998e-06
-6.53782e-07
4.66236e-06
-4.3994e-07
4.69008e-06
-2.63254e-07
4.69087e-06
-1.12854e-07
4.6665e-06
2.11164e-08
4.61591e-06
1.432e-07
4.54095e-06
2.48758e-07
4.32743e-06
7.54065e-07
4.12947e-06
7.5541e-07
3.96115e-06
7.09381e-07
3.82357e-06
6.44952e-07
3.71107e-06
5.82076e-07
3.61579e-06
5.31716e-07
3.52981e-06
4.98532e-07
3.44606e-06
4.83141e-07
3.35871e-06
4.83295e-07
3.26394e-06
4.9413e-07
3.16116e-06
5.08189e-07
3.0711e-06
4.33723e-07
2.98169e-06
4.34367e-07
2.89556e-06
4.3002e-07
2.81284e-06
4.25299e-07
2.73228e-06
4.23543e-07
2.65213e-06
4.26539e-07
2.57065e-06
4.34955e-07
2.48631e-06
4.48758e-07
2.39793e-06
4.67426e-07
2.30487e-06
4.90061e-07
2.26425e-06
2.14734e-07
2.21923e-06
2.41623e-07
2.16952e-06
2.70994e-07
2.11405e-06
3.04557e-07
2.05098e-06
3.4398e-07
1.97756e-06
3.90604e-07
1.89008e-06
4.45043e-07
1.78397e-06
5.06359e-07
1.65456e-06
5.70452e-07
1.49955e-06
6.27438e-07
1.32415e-06
6.58758e-07
1.28126e-06
1.51571e-07
1.2462e-06
1.12674e-07
1.22658e-06
5.64462e-08
1.22611e-06
-9.92728e-09
1.24623e-06
-7.98662e-08
1.28733e-06
-1.4766e-07
1.34831e-06
-2.06521e-07
1.42424e-06
-2.46337e-07
1.50242e-06
-2.53245e-07
1.56161e-06
-2.17142e-07
2.25949e-06
-2.66153e-06
2.84012e-06
-2.39078e-06
3.28831e-06
-2.03398e-06
3.62306e-06
-1.67312e-06
3.87035e-06
-1.34468e-06
4.05236e-06
-1.05844e-06
4.18523e-06
-8.12051e-07
4.27986e-06
-5.98656e-07
4.34329e-06
-4.10356e-07
4.37981e-06
-2.39443e-07
-7.87003e-08
4.99411e-06
6.98346e-09
4.9888e-06
3.74743e-09
4.98463e-06
-2.7758e-09
4.98244e-06
-1.29407e-08
4.98357e-06
-2.73582e-08
4.99011e-06
-4.67039e-08
5.00525e-06
-7.13081e-08
5.03329e-06
-1.00296e-07
5.07907e-06
-1.29789e-07
5.14512e-06
-1.49605e-07
5.22517e-06
-1.39189e-07
5.29373e-06
-6.6409e-08
5.33232e-06
5.96484e-08
5.33421e-06
2.20772e-07
5.29888e-06
4.03826e-07
5.2247e-06
6.06703e-07
5.10502e-06
8.33638e-07
4.92567e-06
1.09071e-06
4.66378e-06
1.37996e-06
4.29179e-06
1.68719e-06
3.798e-06
1.95749e-06
3.62314e-06
6.22966e-07
3.44548e-06
6.17309e-07
3.30325e-06
5.22841e-07
3.20637e-06
3.84413e-07
3.15344e-06
2.29245e-07
3.14135e-06
6.99476e-08
3.16881e-06
-8.77426e-08
3.23641e-06
-2.38827e-07
3.34366e-06
-3.73378e-07
3.48107e-06
-4.70157e-07
3.61677e-06
-4.94854e-07
4.09655e-06
-1.9479e-06
4.47389e-06
-1.73557e-06
4.75669e-06
-1.4834e-06
4.96782e-06
-1.24139e-06
5.12716e-06
-1.02417e-06
5.24788e-06
-8.31679e-07
5.33733e-06
-6.59455e-07
5.39887e-06
-5.0324e-07
5.43416e-06
-3.61588e-07
5.44656e-06
-2.37789e-07
5.44418e-06
-1.28886e-07
5.43454e-06
-5.1585e-08
5.41918e-06
1.4069e-08
5.39692e-06
7.43623e-08
5.36648e-06
1.31234e-07
5.32763e-06
1.83996e-07
5.28164e-06
2.30778e-07
5.23152e-06
2.69662e-07
5.1817e-06
3.00106e-07
5.13654e-06
3.25359e-07
5.0961e-06
3.55984e-07
5.06093e-06
3.10344e-07
5.00603e-06
3.90727e-07
4.92694e-06
4.82689e-07
4.82523e-06
5.73816e-07
4.70444e-06
6.57372e-07
4.56814e-06
7.30417e-07
4.41931e-06
7.91913e-07
4.2603e-06
8.41493e-07
4.09313e-06
8.78552e-07
3.92037e-06
9.01335e-07
3.89996e-06
1.06433e-07
3.8795e-06
1.08986e-07
3.85971e-06
1.09467e-07
3.84073e-06
1.08976e-07
3.82229e-06
1.08498e-07
3.80375e-06
1.08819e-07
3.78402e-06
1.10495e-07
3.76157e-06
1.13617e-07
3.73468e-06
1.17107e-07
3.70277e-06
1.17289e-07
3.66937e-06
1.06326e-07
3.46834e-06
6.2934e-07
3.31531e-06
4.9678e-07
3.22084e-06
3.11901e-07
3.18202e-06
1.07274e-07
3.1943e-06
-1.0284e-07
3.25627e-06
-3.1369e-07
3.37048e-06
-5.22607e-07
3.54146e-06
-7.22495e-07
3.76912e-06
-8.94111e-07
4.03468e-06
-9.9854e-07
4.20294e-06
-6.61386e-07
4.33371e-06
-5.87761e-07
4.428e-06
-4.96988e-07
4.49566e-06
-4.12456e-07
4.54562e-06
-3.4041e-07
4.58347e-06
-2.79715e-07
4.61164e-06
-2.27254e-07
4.63031e-06
-1.80412e-07
4.63857e-06
-1.38714e-07
4.6368e-06
-1.0584e-07
4.6312e-06
-9.15606e-08
4.63464e-06
-2.14107e-07
4.66481e-06
-2.66376e-07
4.72124e-06
-3.26349e-07
4.7968e-06
-3.76293e-07
4.88329e-06
-4.08626e-07
4.97339e-06
-4.2129e-07
5.0608e-06
-4.14941e-07
5.14029e-06
-3.91974e-07
5.20814e-06
-3.56816e-07
5.26382e-06
-3.16691e-07
5.31732e-06
-3.13949e-07
5.36625e-06
-2.81378e-07
5.41025e-06
-2.47711e-07
5.44785e-06
-2.11065e-07
5.47833e-06
-1.72591e-07
5.50266e-06
-1.34941e-07
5.52392e-06
-1.00926e-07
5.54739e-06
-7.21082e-08
5.57989e-06
-4.65255e-08
5.62674e-06
-1.46093e-08
5.684e-06
4.63753e-08
5.7174e-06
1.46345e-07
5.713e-06
3.32639e-07
5.66175e-06
5.58442e-07
5.56197e-06
8.09712e-07
5.41083e-06
1.08459e-06
5.1992e-06
1.38897e-06
4.90775e-06
1.73145e-06
4.50454e-06
2.11584e-06
3.94956e-06
2.52412e-06
3.22423e-06
2.87913e-06
3.07562e-06
5.2387e-07
2.90662e-06
5.28135e-07
2.76773e-06
4.25495e-07
2.67758e-06
2.60356e-07
2.64105e-06
6.19601e-08
2.6613e-06
-1.55691e-07
2.74445e-06
-3.84948e-07
2.8996e-06
-6.15619e-07
3.13283e-06
-8.24149e-07
3.42916e-06
-9.58623e-07
3.71891e-06
-9.30025e-07
4.25862e-06
-1.98936e-06
4.58029e-06
-1.51564e-06
4.74222e-06
-1.07184e-06
4.81364e-06
-7.25195e-07
4.83904e-06
-4.65347e-07
4.84048e-06
-2.64687e-07
4.82484e-06
-9.7216e-08
4.78858e-06
5.73766e-08
4.72147e-06
2.10312e-07
4.61744e-06
3.52782e-07
4.32878e-06
1.04273e-06
4.08344e-06
1.00075e-06
3.89672e-06
8.96097e-07
3.76069e-06
7.80983e-07
3.66071e-06
6.82052e-07
3.58261e-06
6.0982e-07
3.51442e-06
5.66717e-07
3.44621e-06
5.51353e-07
3.36955e-06
5.59959e-07
3.278e-06
5.85676e-07
3.16995e-06
6.16241e-07
3.07175e-06
5.31921e-07
2.97734e-06
5.28777e-07
2.89084e-06
5.16523e-07
2.81109e-06
5.05048e-07
2.73527e-06
4.99358e-07
2.66054e-06
5.01269e-07
2.58445e-06
5.11046e-07
2.50498e-06
5.28229e-07
2.42057e-06
5.51839e-07
2.33051e-06
5.80113e-07
2.29114e-06
2.54108e-07
2.2486e-06
2.8416e-07
2.20308e-06
3.16517e-07
2.15347e-06
3.54163e-07
2.0976e-06
3.99854e-07
2.032e-06
4.56207e-07
1.9514e-06
5.25641e-07
1.84806e-06
6.09695e-07
1.71154e-06
7.06971e-07
1.53087e-06
8.08114e-07
1.30389e-06
8.85733e-07
1.24236e-06
2.13102e-07
1.18997e-06
1.6506e-07
1.16021e-06
8.62143e-08
1.15617e-06
-5.88873e-09
1.17844e-06
-1.02136e-07
1.22847e-06
-1.97692e-07
1.3085e-06
-2.86547e-07
1.41733e-06
-3.55174e-07
1.53852e-06
-3.74433e-07
1.6223e-06
-3.00921e-07
2.53024e-06
-3.56946e-06
3.19692e-06
-3.05747e-06
3.64917e-06
-2.48623e-06
3.9515e-06
-1.97545e-06
4.15658e-06
-1.54976e-06
4.29876e-06
-1.20062e-06
4.39863e-06
-9.11923e-07
4.46816e-06
-6.6819e-07
4.5142e-06
-4.56395e-07
4.54056e-06
-2.65799e-07
-8.72906e-08
4.99088e-06
1.61052e-08
4.98227e-06
1.23525e-08
4.97447e-06
5.03082e-09
4.96803e-06
-6.50102e-09
4.96422e-06
-2.35538e-08
4.96551e-06
-4.79887e-08
4.97626e-06
-8.2059e-08
5.0038e-06
-1.2784e-07
5.05925e-06
-1.8524e-07
5.15553e-06
-2.45887e-07
5.29375e-06
-2.77406e-07
5.41979e-06