/*--------------------------------*- C++ -*----------------------------------*\
  =========                 |
  \\      /  F ield         | OpenFOAM: The Open Source CFD Toolbox
   \\    /   O peration     | Website:  https://openfoam.org
    \\  /    A nd           | Version:  7
     \\/     M anipulation  |
\*---------------------------------------------------------------------------*/
FoamFile
{
    version     2.0;
    format      ascii;
    class       volTensorField;
    location    "0";
    object      K;
}
// * * * * * * * * * * * * * * * * * * * * * * * * * * * * * * * * * * * * * //

dimensions      [0 2 0 0 0 0 0];

internalField   nonuniform List<tensor> 
64000
(
(4.16165e-05 0 0 0 4.16165e-05 0 0 0 4.16165e-05)
(9.75357e-05 0 0 0 9.75357e-05 0 0 0 9.75357e-05)
(5.49277e-05 0 0 0 5.49277e-05 0 0 0 5.49277e-05)
(0.00343835 0 0 0 0.00343835 0 0 0 0.00343835)
(5.24039e-05 0 0 0 5.24039e-05 0 0 0 5.24039e-05)
(1.26301e-05 0 0 0 1.26301e-05 0 0 0 1.26301e-05)
(2.53534e-05 0 0 0 2.53534e-05 0 0 0 2.53534e-05)
(2.92634e-06 0 0 0 2.92634e-06 0 0 0 2.92634e-06)
(1.55032e-05 0 0 0 1.55032e-05 0 0 0 1.55032e-05)
(4.54484e-05 0 0 0 4.54484e-05 0 0 0 4.54484e-05)
(1.28221e-05 0 0 0 1.28221e-05 0 0 0 1.28221e-05)
(4.24615e-06 0 0 0 4.24615e-06 0 0 0 4.24615e-06)
(0.000375713 0 0 0 0.000375713 0 0 0 0.000375713)
(0.00129581 0 0 0 0.00129581 0 0 0 0.00129581)
(1.19639e-05 0 0 0 1.19639e-05 0 0 0 1.19639e-05)
(6.39015e-06 0 0 0 6.39015e-06 0 0 0 6.39015e-06)
(5.08842e-06 0 0 0 5.08842e-06 0 0 0 5.08842e-06)
(2.51432e-05 0 0 0 2.51432e-05 0 0 0 2.51432e-05)
(9.09353e-06 0 0 0 9.09353e-06 0 0 0 9.09353e-06)
(2.62751e-05 0 0 0 2.62751e-05 0 0 0 2.62751e-05)
(3.38695e-05 0 0 0 3.38695e-05 0 0 0 3.38695e-05)
(0.000186789 0 0 0 0.000186789 0 0 0 0.000186789)
(0.00157454 0 0 0 0.00157454 0 0 0 0.00157454)
(0.00119571 0 0 0 0.00119571 0 0 0 0.00119571)
(2.30913e-05 0 0 0 2.30913e-05 0 0 0 2.30913e-05)
(1.35899e-05 0 0 0 1.35899e-05 0 0 0 1.35899e-05)
(3.68973e-06 0 0 0 3.68973e-06 0 0 0 3.68973e-06)
(2.10295e-05 0 0 0 2.10295e-05 0 0 0 2.10295e-05)
(7.89836e-06 0 0 0 7.89836e-06 0 0 0 7.89836e-06)
(3.90686e-06 0 0 0 3.90686e-06 0 0 0 3.90686e-06)
(1.1401e-05 0 0 0 1.1401e-05 0 0 0 1.1401e-05)
(5.2533e-05 0 0 0 5.2533e-05 0 0 0 5.2533e-05)
(1.42183e-06 0 0 0 1.42183e-06 0 0 0 1.42183e-06)
(0.000134909 0 0 0 0.000134909 0 0 0 0.000134909)
(0.000126611 0 0 0 0.000126611 0 0 0 0.000126611)
(0.000111484 0 0 0 0.000111484 0 0 0 0.000111484)
(2.10811e-06 0 0 0 2.10811e-06 0 0 0 2.10811e-06)
(2.70396e-07 0 0 0 2.70396e-07 0 0 0 2.70396e-07)
(1.23342e-05 0 0 0 1.23342e-05 0 0 0 1.23342e-05)
(5.93158e-06 0 0 0 5.93158e-06 0 0 0 5.93158e-06)
(0.000136101 0 0 0 0.000136101 0 0 0 0.000136101)
(6.15935e-07 0 0 0 6.15935e-07 0 0 0 6.15935e-07)
(9.15486e-06 0 0 0 9.15486e-06 0 0 0 9.15486e-06)
(3.08124e-06 0 0 0 3.08124e-06 0 0 0 3.08124e-06)
(0.000206707 0 0 0 0.000206707 0 0 0 0.000206707)
(0.000707588 0 0 0 0.000707588 0 0 0 0.000707588)
(3.82752e-05 0 0 0 3.82752e-05 0 0 0 3.82752e-05)
(2.09005e-06 0 0 0 2.09005e-06 0 0 0 2.09005e-06)
(5.77521e-06 0 0 0 5.77521e-06 0 0 0 5.77521e-06)
(1.24246e-05 0 0 0 1.24246e-05 0 0 0 1.24246e-05)
(0.000149562 0 0 0 0.000149562 0 0 0 0.000149562)
(2.42099e-06 0 0 0 2.42099e-06 0 0 0 2.42099e-06)
(1.81765e-05 0 0 0 1.81765e-05 0 0 0 1.81765e-05)
(3.51721e-05 0 0 0 3.51721e-05 0 0 0 3.51721e-05)
(0.000137789 0 0 0 0.000137789 0 0 0 0.000137789)
(0.00132012 0 0 0 0.00132012 0 0 0 0.00132012)
(1.89437e-05 0 0 0 1.89437e-05 0 0 0 1.89437e-05)
(2.19524e-06 0 0 0 2.19524e-06 0 0 0 2.19524e-06)
(4.7401e-06 0 0 0 4.7401e-06 0 0 0 4.7401e-06)
(4.02407e-05 0 0 0 4.02407e-05 0 0 0 4.02407e-05)
(0.000129224 0 0 0 0.000129224 0 0 0 0.000129224)
(1.46072e-05 0 0 0 1.46072e-05 0 0 0 1.46072e-05)
(1.11123e-05 0 0 0 1.11123e-05 0 0 0 1.11123e-05)
(5.56496e-05 0 0 0 5.56496e-05 0 0 0 5.56496e-05)
(6.78411e-05 0 0 0 6.78411e-05 0 0 0 6.78411e-05)
(1.95667e-05 0 0 0 1.95667e-05 0 0 0 1.95667e-05)
(3.44327e-06 0 0 0 3.44327e-06 0 0 0 3.44327e-06)
(5.71347e-06 0 0 0 5.71347e-06 0 0 0 5.71347e-06)
(1.14088e-05 0 0 0 1.14088e-05 0 0 0 1.14088e-05)
(1.44684e-05 0 0 0 1.44684e-05 0 0 0 1.44684e-05)
(8.48734e-05 0 0 0 8.48734e-05 0 0 0 8.48734e-05)
(0.000321975 0 0 0 0.000321975 0 0 0 0.000321975)
(2.91787e-05 0 0 0 2.91787e-05 0 0 0 2.91787e-05)
(1.80666e-05 0 0 0 1.80666e-05 0 0 0 1.80666e-05)
(3.34286e-05 0 0 0 3.34286e-05 0 0 0 3.34286e-05)
(6.26594e-05 0 0 0 6.26594e-05 0 0 0 6.26594e-05)
(7.95721e-06 0 0 0 7.95721e-06 0 0 0 7.95721e-06)
(3.18009e-05 0 0 0 3.18009e-05 0 0 0 3.18009e-05)
(2.25095e-06 0 0 0 2.25095e-06 0 0 0 2.25095e-06)
(0.000139715 0 0 0 0.000139715 0 0 0 0.000139715)
(2.17504e-05 0 0 0 2.17504e-05 0 0 0 2.17504e-05)
(1.21912e-05 0 0 0 1.21912e-05 0 0 0 1.21912e-05)
(2.39785e-05 0 0 0 2.39785e-05 0 0 0 2.39785e-05)
(1.72731e-05 0 0 0 1.72731e-05 0 0 0 1.72731e-05)
(3.78756e-05 0 0 0 3.78756e-05 0 0 0 3.78756e-05)
(6.95212e-06 0 0 0 6.95212e-06 0 0 0 6.95212e-06)
(1.78051e-07 0 0 0 1.78051e-07 0 0 0 1.78051e-07)
(1.26534e-05 0 0 0 1.26534e-05 0 0 0 1.26534e-05)
(6.30154e-06 0 0 0 6.30154e-06 0 0 0 6.30154e-06)
(4.6301e-05 0 0 0 4.6301e-05 0 0 0 4.6301e-05)
(1.33352e-06 0 0 0 1.33352e-06 0 0 0 1.33352e-06)
(5.1747e-05 0 0 0 5.1747e-05 0 0 0 5.1747e-05)
(3.813e-05 0 0 0 3.813e-05 0 0 0 3.813e-05)
(2.62827e-05 0 0 0 2.62827e-05 0 0 0 2.62827e-05)
(1.05207e-06 0 0 0 1.05207e-06 0 0 0 1.05207e-06)
(4.92053e-07 0 0 0 4.92053e-07 0 0 0 4.92053e-07)
(3.29494e-07 0 0 0 3.29494e-07 0 0 0 3.29494e-07)
(1.70368e-06 0 0 0 1.70368e-06 0 0 0 1.70368e-06)
(8.49282e-07 0 0 0 8.49282e-07 0 0 0 8.49282e-07)
(1.17963e-06 0 0 0 1.17963e-06 0 0 0 1.17963e-06)
(6.84561e-05 0 0 0 6.84561e-05 0 0 0 6.84561e-05)
(0.000125465 0 0 0 0.000125465 0 0 0 0.000125465)
(5.67959e-05 0 0 0 5.67959e-05 0 0 0 5.67959e-05)
(0.00194621 0 0 0 0.00194621 0 0 0 0.00194621)
(7.30408e-05 0 0 0 7.30408e-05 0 0 0 7.30408e-05)
(1.39883e-06 0 0 0 1.39883e-06 0 0 0 1.39883e-06)
(1.54977e-05 0 0 0 1.54977e-05 0 0 0 1.54977e-05)
(1.66968e-06 0 0 0 1.66968e-06 0 0 0 1.66968e-06)
(7.36179e-06 0 0 0 7.36179e-06 0 0 0 7.36179e-06)
(2.35915e-05 0 0 0 2.35915e-05 0 0 0 2.35915e-05)
(7.30072e-06 0 0 0 7.30072e-06 0 0 0 7.30072e-06)
(4.56132e-06 0 0 0 4.56132e-06 0 0 0 4.56132e-06)
(0.000534422 0 0 0 0.000534422 0 0 0 0.000534422)
(0.0103893 0 0 0 0.0103893 0 0 0 0.0103893)
(1.73114e-05 0 0 0 1.73114e-05 0 0 0 1.73114e-05)
(1.04181e-05 0 0 0 1.04181e-05 0 0 0 1.04181e-05)
(2.50728e-05 0 0 0 2.50728e-05 0 0 0 2.50728e-05)
(1.24967e-05 0 0 0 1.24967e-05 0 0 0 1.24967e-05)
(2.36164e-05 0 0 0 2.36164e-05 0 0 0 2.36164e-05)
(1.75602e-05 0 0 0 1.75602e-05 0 0 0 1.75602e-05)
(2.07294e-05 0 0 0 2.07294e-05 0 0 0 2.07294e-05)
(0.000571862 0 0 0 0.000571862 0 0 0 0.000571862)
(0.00093965 0 0 0 0.00093965 0 0 0 0.00093965)
(0.000301661 0 0 0 0.000301661 0 0 0 0.000301661)
(5.6778e-06 0 0 0 5.6778e-06 0 0 0 5.6778e-06)
(2.2848e-05 0 0 0 2.2848e-05 0 0 0 2.2848e-05)
(5.54533e-06 0 0 0 5.54533e-06 0 0 0 5.54533e-06)
(2.08003e-05 0 0 0 2.08003e-05 0 0 0 2.08003e-05)
(4.95496e-06 0 0 0 4.95496e-06 0 0 0 4.95496e-06)
(5.56103e-06 0 0 0 5.56103e-06 0 0 0 5.56103e-06)
(3.17767e-05 0 0 0 3.17767e-05 0 0 0 3.17767e-05)
(5.12701e-05 0 0 0 5.12701e-05 0 0 0 5.12701e-05)
(2.89025e-06 0 0 0 2.89025e-06 0 0 0 2.89025e-06)
(9.16495e-05 0 0 0 9.16495e-05 0 0 0 9.16495e-05)
(5.53415e-05 0 0 0 5.53415e-05 0 0 0 5.53415e-05)
(3.22428e-05 0 0 0 3.22428e-05 0 0 0 3.22428e-05)
(4.58456e-06 0 0 0 4.58456e-06 0 0 0 4.58456e-06)
(8.37787e-07 0 0 0 8.37787e-07 0 0 0 8.37787e-07)
(1.75423e-05 0 0 0 1.75423e-05 0 0 0 1.75423e-05)
(2.43469e-05 0 0 0 2.43469e-05 0 0 0 2.43469e-05)
(0.000215461 0 0 0 0.000215461 0 0 0 0.000215461)
(7.66821e-07 0 0 0 7.66821e-07 0 0 0 7.66821e-07)
(1.15774e-05 0 0 0 1.15774e-05 0 0 0 1.15774e-05)
(1.12287e-05 0 0 0 1.12287e-05 0 0 0 1.12287e-05)
(0.000315779 0 0 0 0.000315779 0 0 0 0.000315779)
(0.000582612 0 0 0 0.000582612 0 0 0 0.000582612)
(4.09594e-05 0 0 0 4.09594e-05 0 0 0 4.09594e-05)
(1.3022e-06 0 0 0 1.3022e-06 0 0 0 1.3022e-06)
(5.21759e-06 0 0 0 5.21759e-06 0 0 0 5.21759e-06)
(1.53795e-05 0 0 0 1.53795e-05 0 0 0 1.53795e-05)
(0.000136393 0 0 0 0.000136393 0 0 0 0.000136393)
(3.1176e-06 0 0 0 3.1176e-06 0 0 0 3.1176e-06)
(2.42404e-05 0 0 0 2.42404e-05 0 0 0 2.42404e-05)
(6.1536e-05 0 0 0 6.1536e-05 0 0 0 6.1536e-05)
(0.000121547 0 0 0 0.000121547 0 0 0 0.000121547)
(0.000589092 0 0 0 0.000589092 0 0 0 0.000589092)
(1.56503e-05 0 0 0 1.56503e-05 0 0 0 1.56503e-05)
(2.33731e-06 0 0 0 2.33731e-06 0 0 0 2.33731e-06)
(4.28106e-06 0 0 0 4.28106e-06 0 0 0 4.28106e-06)
(3.65164e-05 0 0 0 3.65164e-05 0 0 0 3.65164e-05)
(6.35517e-05 0 0 0 6.35517e-05 0 0 0 6.35517e-05)
(6.00961e-06 0 0 0 6.00961e-06 0 0 0 6.00961e-06)
(3.10378e-05 0 0 0 3.10378e-05 0 0 0 3.10378e-05)
(0.000132619 0 0 0 0.000132619 0 0 0 0.000132619)
(2.57933e-05 0 0 0 2.57933e-05 0 0 0 2.57933e-05)
(2.03577e-05 0 0 0 2.03577e-05 0 0 0 2.03577e-05)
(7.61728e-06 0 0 0 7.61728e-06 0 0 0 7.61728e-06)
(2.04606e-06 0 0 0 2.04606e-06 0 0 0 2.04606e-06)
(1.62696e-05 0 0 0 1.62696e-05 0 0 0 1.62696e-05)
(3.34363e-05 0 0 0 3.34363e-05 0 0 0 3.34363e-05)
(0.000122819 0 0 0 0.000122819 0 0 0 0.000122819)
(0.000189666 0 0 0 0.000189666 0 0 0 0.000189666)
(8.85337e-05 0 0 0 8.85337e-05 0 0 0 8.85337e-05)
(9.98775e-06 0 0 0 9.98775e-06 0 0 0 9.98775e-06)
(4.10796e-05 0 0 0 4.10796e-05 0 0 0 4.10796e-05)
(3.93124e-05 0 0 0 3.93124e-05 0 0 0 3.93124e-05)
(9.62943e-06 0 0 0 9.62943e-06 0 0 0 9.62943e-06)
(1.18047e-05 0 0 0 1.18047e-05 0 0 0 1.18047e-05)
(4.30022e-06 0 0 0 4.30022e-06 0 0 0 4.30022e-06)
(0.000165392 0 0 0 0.000165392 0 0 0 0.000165392)
(2.21906e-05 0 0 0 2.21906e-05 0 0 0 2.21906e-05)
(2.87545e-05 0 0 0 2.87545e-05 0 0 0 2.87545e-05)
(5.79152e-05 0 0 0 5.79152e-05 0 0 0 5.79152e-05)
(4.02022e-05 0 0 0 4.02022e-05 0 0 0 4.02022e-05)
(9.08803e-06 0 0 0 9.08803e-06 0 0 0 9.08803e-06)
(7.39012e-06 0 0 0 7.39012e-06 0 0 0 7.39012e-06)
(6.03546e-07 0 0 0 6.03546e-07 0 0 0 6.03546e-07)
(8.86893e-06 0 0 0 8.86893e-06 0 0 0 8.86893e-06)
(1.27341e-05 0 0 0 1.27341e-05 0 0 0 1.27341e-05)
(5.64477e-05 0 0 0 5.64477e-05 0 0 0 5.64477e-05)
(3.33131e-06 0 0 0 3.33131e-06 0 0 0 3.33131e-06)
(3.30158e-05 0 0 0 3.30158e-05 0 0 0 3.30158e-05)
(7.97108e-06 0 0 0 7.97108e-06 0 0 0 7.97108e-06)
(3.79086e-05 0 0 0 3.79086e-05 0 0 0 3.79086e-05)
(1.665e-06 0 0 0 1.665e-06 0 0 0 1.665e-06)
(3.70679e-07 0 0 0 3.70679e-07 0 0 0 3.70679e-07)
(3.95761e-07 0 0 0 3.95761e-07 0 0 0 3.95761e-07)
(2.21722e-06 0 0 0 2.21722e-06 0 0 0 2.21722e-06)
(1.23824e-06 0 0 0 1.23824e-06 0 0 0 1.23824e-06)
(1.59341e-06 0 0 0 1.59341e-06 0 0 0 1.59341e-06)
(2.88581e-05 0 0 0 2.88581e-05 0 0 0 2.88581e-05)
(0.000171891 0 0 0 0.000171891 0 0 0 0.000171891)
(3.4586e-05 0 0 0 3.4586e-05 0 0 0 3.4586e-05)
(0.000106851 0 0 0 0.000106851 0 0 0 0.000106851)
(8.37264e-05 0 0 0 8.37264e-05 0 0 0 8.37264e-05)
(4.14747e-07 0 0 0 4.14747e-07 0 0 0 4.14747e-07)
(1.19904e-05 0 0 0 1.19904e-05 0 0 0 1.19904e-05)
(3.01286e-06 0 0 0 3.01286e-06 0 0 0 3.01286e-06)
(2.67343e-06 0 0 0 2.67343e-06 0 0 0 2.67343e-06)
(2.28148e-05 0 0 0 2.28148e-05 0 0 0 2.28148e-05)
(1.65567e-06 0 0 0 1.65567e-06 0 0 0 1.65567e-06)
(5.40173e-06 0 0 0 5.40173e-06 0 0 0 5.40173e-06)
(0.000396095 0 0 0 0.000396095 0 0 0 0.000396095)
(0.00686318 0 0 0 0.00686318 0 0 0 0.00686318)
(7.82398e-06 0 0 0 7.82398e-06 0 0 0 7.82398e-06)
(1.17736e-05 0 0 0 1.17736e-05 0 0 0 1.17736e-05)
(7.34353e-05 0 0 0 7.34353e-05 0 0 0 7.34353e-05)
(8.02253e-06 0 0 0 8.02253e-06 0 0 0 8.02253e-06)
(3.55255e-05 0 0 0 3.55255e-05 0 0 0 3.55255e-05)
(1.48762e-05 0 0 0 1.48762e-05 0 0 0 1.48762e-05)
(5.34564e-06 0 0 0 5.34564e-06 0 0 0 5.34564e-06)
(0.0004086 0 0 0 0.0004086 0 0 0 0.0004086)
(0.000335872 0 0 0 0.000335872 0 0 0 0.000335872)
(5.74759e-05 0 0 0 5.74759e-05 0 0 0 5.74759e-05)
(1.16158e-06 0 0 0 1.16158e-06 0 0 0 1.16158e-06)
(3.42278e-05 0 0 0 3.42278e-05 0 0 0 3.42278e-05)
(2.92543e-06 0 0 0 2.92543e-06 0 0 0 2.92543e-06)
(4.07693e-06 0 0 0 4.07693e-06 0 0 0 4.07693e-06)
(4.39473e-06 0 0 0 4.39473e-06 0 0 0 4.39473e-06)
(1.17424e-05 0 0 0 1.17424e-05 0 0 0 1.17424e-05)
(9.50797e-05 0 0 0 9.50797e-05 0 0 0 9.50797e-05)
(1.11059e-05 0 0 0 1.11059e-05 0 0 0 1.11059e-05)
(8.00466e-06 0 0 0 8.00466e-06 0 0 0 8.00466e-06)
(3.72236e-05 0 0 0 3.72236e-05 0 0 0 3.72236e-05)
(1.59339e-05 0 0 0 1.59339e-05 0 0 0 1.59339e-05)
(2.90294e-05 0 0 0 2.90294e-05 0 0 0 2.90294e-05)
(2.20557e-05 0 0 0 2.20557e-05 0 0 0 2.20557e-05)
(6.32459e-07 0 0 0 6.32459e-07 0 0 0 6.32459e-07)
(1.12262e-05 0 0 0 1.12262e-05 0 0 0 1.12262e-05)
(4.70239e-05 0 0 0 4.70239e-05 0 0 0 4.70239e-05)
(0.000138337 0 0 0 0.000138337 0 0 0 0.000138337)
(8.77656e-07 0 0 0 8.77656e-07 0 0 0 8.77656e-07)
(3.30903e-05 0 0 0 3.30903e-05 0 0 0 3.30903e-05)
(2.72859e-05 0 0 0 2.72859e-05 0 0 0 2.72859e-05)
(0.000192354 0 0 0 0.000192354 0 0 0 0.000192354)
(0.00024916 0 0 0 0.00024916 0 0 0 0.00024916)
(2.7825e-05 0 0 0 2.7825e-05 0 0 0 2.7825e-05)
(1.11373e-06 0 0 0 1.11373e-06 0 0 0 1.11373e-06)
(3.71274e-06 0 0 0 3.71274e-06 0 0 0 3.71274e-06)
(1.47776e-05 0 0 0 1.47776e-05 0 0 0 1.47776e-05)
(0.000124936 0 0 0 0.000124936 0 0 0 0.000124936)
(4.00043e-06 0 0 0 4.00043e-06 0 0 0 4.00043e-06)
(4.63919e-05 0 0 0 4.63919e-05 0 0 0 4.63919e-05)
(0.000130974 0 0 0 0.000130974 0 0 0 0.000130974)
(3.762e-05 0 0 0 3.762e-05 0 0 0 3.762e-05)
(0.000341425 0 0 0 0.000341425 0 0 0 0.000341425)
(9.96278e-06 0 0 0 9.96278e-06 0 0 0 9.96278e-06)
(9.9147e-07 0 0 0 9.9147e-07 0 0 0 9.9147e-07)
(4.74025e-06 0 0 0 4.74025e-06 0 0 0 4.74025e-06)
(5.08364e-05 0 0 0 5.08364e-05 0 0 0 5.08364e-05)
(4.77416e-05 0 0 0 4.77416e-05 0 0 0 4.77416e-05)
(4.51855e-06 0 0 0 4.51855e-06 0 0 0 4.51855e-06)
(6.92184e-05 0 0 0 6.92184e-05 0 0 0 6.92184e-05)
(0.000148807 0 0 0 0.000148807 0 0 0 0.000148807)
(1.32372e-05 0 0 0 1.32372e-05 0 0 0 1.32372e-05)
(1.64933e-05 0 0 0 1.64933e-05 0 0 0 1.64933e-05)
(1.69046e-05 0 0 0 1.69046e-05 0 0 0 1.69046e-05)
(8.77811e-07 0 0 0 8.77811e-07 0 0 0 8.77811e-07)
(1.41229e-05 0 0 0 1.41229e-05 0 0 0 1.41229e-05)
(3.37045e-05 0 0 0 3.37045e-05 0 0 0 3.37045e-05)
(7.43632e-05 0 0 0 7.43632e-05 0 0 0 7.43632e-05)
(6.49329e-05 0 0 0 6.49329e-05 0 0 0 6.49329e-05)
(0.0001663 0 0 0 0.0001663 0 0 0 0.0001663)
(6.01916e-06 0 0 0 6.01916e-06 0 0 0 6.01916e-06)
(1.81913e-05 0 0 0 1.81913e-05 0 0 0 1.81913e-05)
(6.25852e-05 0 0 0 6.25852e-05 0 0 0 6.25852e-05)
(9.39206e-06 0 0 0 9.39206e-06 0 0 0 9.39206e-06)
(3.00365e-06 0 0 0 3.00365e-06 0 0 0 3.00365e-06)
(6.5925e-06 0 0 0 6.5925e-06 0 0 0 6.5925e-06)
(0.000279518 0 0 0 0.000279518 0 0 0 0.000279518)
(9.3542e-06 0 0 0 9.3542e-06 0 0 0 9.3542e-06)
(3.94286e-05 0 0 0 3.94286e-05 0 0 0 3.94286e-05)
(0.000152134 0 0 0 0.000152134 0 0 0 0.000152134)
(1.57471e-05 0 0 0 1.57471e-05 0 0 0 1.57471e-05)
(4.60581e-06 0 0 0 4.60581e-06 0 0 0 4.60581e-06)
(1.20858e-05 0 0 0 1.20858e-05 0 0 0 1.20858e-05)
(2.10766e-06 0 0 0 2.10766e-06 0 0 0 2.10766e-06)
(3.10754e-06 0 0 0 3.10754e-06 0 0 0 3.10754e-06)
(6.39156e-06 0 0 0 6.39156e-06 0 0 0 6.39156e-06)
(2.52166e-05 0 0 0 2.52166e-05 0 0 0 2.52166e-05)
(1.38568e-05 0 0 0 1.38568e-05 0 0 0 1.38568e-05)
(1.57259e-05 0 0 0 1.57259e-05 0 0 0 1.57259e-05)
(1.36968e-05 0 0 0 1.36968e-05 0 0 0 1.36968e-05)
(6.00366e-05 0 0 0 6.00366e-05 0 0 0 6.00366e-05)
(5.04843e-06 0 0 0 5.04843e-06 0 0 0 5.04843e-06)
(4.63276e-07 0 0 0 4.63276e-07 0 0 0 4.63276e-07)
(6.75461e-07 0 0 0 6.75461e-07 0 0 0 6.75461e-07)
(5.06764e-06 0 0 0 5.06764e-06 0 0 0 5.06764e-06)
(1.51996e-06 0 0 0 1.51996e-06 0 0 0 1.51996e-06)
(5.17695e-06 0 0 0 5.17695e-06 0 0 0 5.17695e-06)
(5.44499e-05 0 0 0 5.44499e-05 0 0 0 5.44499e-05)
(0.000326888 0 0 0 0.000326888 0 0 0 0.000326888)
(3.70664e-05 0 0 0 3.70664e-05 0 0 0 3.70664e-05)
(9.47273e-06 0 0 0 9.47273e-06 0 0 0 9.47273e-06)
(3.74459e-05 0 0 0 3.74459e-05 0 0 0 3.74459e-05)
(6.7794e-07 0 0 0 6.7794e-07 0 0 0 6.7794e-07)
(1.50671e-05 0 0 0 1.50671e-05 0 0 0 1.50671e-05)
(4.16062e-06 0 0 0 4.16062e-06 0 0 0 4.16062e-06)
(2.71676e-06 0 0 0 2.71676e-06 0 0 0 2.71676e-06)
(1.09633e-05 0 0 0 1.09633e-05 0 0 0 1.09633e-05)
(6.03004e-07 0 0 0 6.03004e-07 0 0 0 6.03004e-07)
(7.84234e-06 0 0 0 7.84234e-06 0 0 0 7.84234e-06)
(9.19994e-05 0 0 0 9.19994e-05 0 0 0 9.19994e-05)
(0.000302685 0 0 0 0.000302685 0 0 0 0.000302685)
(4.78929e-06 0 0 0 4.78929e-06 0 0 0 4.78929e-06)
(6.04338e-06 0 0 0 6.04338e-06 0 0 0 6.04338e-06)
(6.61225e-05 0 0 0 6.61225e-05 0 0 0 6.61225e-05)
(5.39609e-06 0 0 0 5.39609e-06 0 0 0 5.39609e-06)
(2.25767e-05 0 0 0 2.25767e-05 0 0 0 2.25767e-05)
(1.16612e-05 0 0 0 1.16612e-05 0 0 0 1.16612e-05)
(8.01255e-07 0 0 0 8.01255e-07 0 0 0 8.01255e-07)
(7.25321e-05 0 0 0 7.25321e-05 0 0 0 7.25321e-05)
(6.77558e-05 0 0 0 6.77558e-05 0 0 0 6.77558e-05)
(1.88651e-05 0 0 0 1.88651e-05 0 0 0 1.88651e-05)
(9.08917e-07 0 0 0 9.08917e-07 0 0 0 9.08917e-07)
(2.05507e-05 0 0 0 2.05507e-05 0 0 0 2.05507e-05)
(4.36777e-06 0 0 0 4.36777e-06 0 0 0 4.36777e-06)
(1.96601e-06 0 0 0 1.96601e-06 0 0 0 1.96601e-06)
(2.59233e-06 0 0 0 2.59233e-06 0 0 0 2.59233e-06)
(1.89362e-05 0 0 0 1.89362e-05 0 0 0 1.89362e-05)
(0.000259224 0 0 0 0.000259224 0 0 0 0.000259224)
(5.44976e-06 0 0 0 5.44976e-06 0 0 0 5.44976e-06)
(9.8159e-06 0 0 0 9.8159e-06 0 0 0 9.8159e-06)
(6.06954e-05 0 0 0 6.06954e-05 0 0 0 6.06954e-05)
(9.05912e-06 0 0 0 9.05912e-06 0 0 0 9.05912e-06)
(6.04852e-05 0 0 0 6.04852e-05 0 0 0 6.04852e-05)
(5.14124e-05 0 0 0 5.14124e-05 0 0 0 5.14124e-05)
(4.67918e-07 0 0 0 4.67918e-07 0 0 0 4.67918e-07)
(3.76585e-06 0 0 0 3.76585e-06 0 0 0 3.76585e-06)
(7.53435e-05 0 0 0 7.53435e-05 0 0 0 7.53435e-05)
(8.03534e-05 0 0 0 8.03534e-05 0 0 0 8.03534e-05)
(2.83826e-06 0 0 0 2.83826e-06 0 0 0 2.83826e-06)
(5.52659e-05 0 0 0 5.52659e-05 0 0 0 5.52659e-05)
(7.78289e-05 0 0 0 7.78289e-05 0 0 0 7.78289e-05)
(5.11474e-05 0 0 0 5.11474e-05 0 0 0 5.11474e-05)
(9.9019e-05 0 0 0 9.9019e-05 0 0 0 9.9019e-05)
(1.34539e-05 0 0 0 1.34539e-05 0 0 0 1.34539e-05)
(6.09591e-07 0 0 0 6.09591e-07 0 0 0 6.09591e-07)
(1.54982e-06 0 0 0 1.54982e-06 0 0 0 1.54982e-06)
(3.32145e-05 0 0 0 3.32145e-05 0 0 0 3.32145e-05)
(4.43573e-05 0 0 0 4.43573e-05 0 0 0 4.43573e-05)
(3.8518e-06 0 0 0 3.8518e-06 0 0 0 3.8518e-06)
(0.000111638 0 0 0 0.000111638 0 0 0 0.000111638)
(0.000324654 0 0 0 0.000324654 0 0 0 0.000324654)
(3.1708e-05 0 0 0 3.1708e-05 0 0 0 3.1708e-05)
(0.000709216 0 0 0 0.000709216 0 0 0 0.000709216)
(8.45951e-06 0 0 0 8.45951e-06 0 0 0 8.45951e-06)
(1.67488e-07 0 0 0 1.67488e-07 0 0 0 1.67488e-07)
(6.26342e-06 0 0 0 6.26342e-06 0 0 0 6.26342e-06)
(0.000162558 0 0 0 0.000162558 0 0 0 0.000162558)
(3.30757e-05 0 0 0 3.30757e-05 0 0 0 3.30757e-05)
(6.27273e-06 0 0 0 6.27273e-06 0 0 0 6.27273e-06)
(0.000141189 0 0 0 0.000141189 0 0 0 0.000141189)
(7.15347e-05 0 0 0 7.15347e-05 0 0 0 7.15347e-05)
(1.35126e-05 0 0 0 1.35126e-05 0 0 0 1.35126e-05)
(1.01683e-05 0 0 0 1.01683e-05 0 0 0 1.01683e-05)
(1.71682e-05 0 0 0 1.71682e-05 0 0 0 1.71682e-05)
(6.0605e-07 0 0 0 6.0605e-07 0 0 0 6.0605e-07)
(1.11114e-05 0 0 0 1.11114e-05 0 0 0 1.11114e-05)
(4.35234e-05 0 0 0 4.35234e-05 0 0 0 4.35234e-05)
(5.80249e-05 0 0 0 5.80249e-05 0 0 0 5.80249e-05)
(4.35763e-05 0 0 0 4.35763e-05 0 0 0 4.35763e-05)
(0.000130981 0 0 0 0.000130981 0 0 0 0.000130981)
(1.20676e-06 0 0 0 1.20676e-06 0 0 0 1.20676e-06)
(5.43376e-06 0 0 0 5.43376e-06 0 0 0 5.43376e-06)
(0.000101487 0 0 0 0.000101487 0 0 0 0.000101487)
(2.76517e-05 0 0 0 2.76517e-05 0 0 0 2.76517e-05)
(1.56451e-06 0 0 0 1.56451e-06 0 0 0 1.56451e-06)
(4.5039e-06 0 0 0 4.5039e-06 0 0 0 4.5039e-06)
(0.000525986 0 0 0 0.000525986 0 0 0 0.000525986)
(6.47366e-06 0 0 0 6.47366e-06 0 0 0 6.47366e-06)
(0.00010988 0 0 0 0.00010988 0 0 0 0.00010988)
(0.000165435 0 0 0 0.000165435 0 0 0 0.000165435)
(6.8669e-06 0 0 0 6.8669e-06 0 0 0 6.8669e-06)
(1.96409e-06 0 0 0 1.96409e-06 0 0 0 1.96409e-06)
(1.07688e-05 0 0 0 1.07688e-05 0 0 0 1.07688e-05)
(3.6433e-06 0 0 0 3.6433e-06 0 0 0 3.6433e-06)
(2.81919e-06 0 0 0 2.81919e-06 0 0 0 2.81919e-06)
(3.5596e-06 0 0 0 3.5596e-06 0 0 0 3.5596e-06)
(7.04111e-06 0 0 0 7.04111e-06 0 0 0 7.04111e-06)
(2.02617e-05 0 0 0 2.02617e-05 0 0 0 2.02617e-05)
(2.73075e-05 0 0 0 2.73075e-05 0 0 0 2.73075e-05)
(3.50776e-05 0 0 0 3.50776e-05 0 0 0 3.50776e-05)
(7.02228e-05 0 0 0 7.02228e-05 0 0 0 7.02228e-05)
(1.78076e-05 0 0 0 1.78076e-05 0 0 0 1.78076e-05)
(5.83884e-07 0 0 0 5.83884e-07 0 0 0 5.83884e-07)
(3.24207e-07 0 0 0 3.24207e-07 0 0 0 3.24207e-07)
(2.26675e-05 0 0 0 2.26675e-05 0 0 0 2.26675e-05)
(4.04946e-06 0 0 0 4.04946e-06 0 0 0 4.04946e-06)
(1.24554e-05 0 0 0 1.24554e-05 0 0 0 1.24554e-05)
(0.000122858 0 0 0 0.000122858 0 0 0 0.000122858)
(0.000685138 0 0 0 0.000685138 0 0 0 0.000685138)
(5.76536e-05 0 0 0 5.76536e-05 0 0 0 5.76536e-05)
(5.75962e-06 0 0 0 5.75962e-06 0 0 0 5.75962e-06)
(1.20356e-05 0 0 0 1.20356e-05 0 0 0 1.20356e-05)
(1.61991e-06 0 0 0 1.61991e-06 0 0 0 1.61991e-06)
(1.24897e-05 0 0 0 1.24897e-05 0 0 0 1.24897e-05)
(2.70665e-06 0 0 0 2.70665e-06 0 0 0 2.70665e-06)
(3.69944e-06 0 0 0 3.69944e-06 0 0 0 3.69944e-06)
(5.60476e-06 0 0 0 5.60476e-06 0 0 0 5.60476e-06)
(1.02937e-06 0 0 0 1.02937e-06 0 0 0 1.02937e-06)
(3.33773e-06 0 0 0 3.33773e-06 0 0 0 3.33773e-06)
(4.11752e-05 0 0 0 4.11752e-05 0 0 0 4.11752e-05)
(2.91052e-05 0 0 0 2.91052e-05 0 0 0 2.91052e-05)
(6.19798e-06 0 0 0 6.19798e-06 0 0 0 6.19798e-06)
(9.76345e-06 0 0 0 9.76345e-06 0 0 0 9.76345e-06)
(3.60352e-05 0 0 0 3.60352e-05 0 0 0 3.60352e-05)
(3.12208e-06 0 0 0 3.12208e-06 0 0 0 3.12208e-06)
(1.69681e-05 0 0 0 1.69681e-05 0 0 0 1.69681e-05)
(6.79923e-06 0 0 0 6.79923e-06 0 0 0 6.79923e-06)
(1.43285e-07 0 0 0 1.43285e-07 0 0 0 1.43285e-07)
(1.48915e-05 0 0 0 1.48915e-05 0 0 0 1.48915e-05)
(2.86416e-05 0 0 0 2.86416e-05 0 0 0 2.86416e-05)
(1.11486e-05 0 0 0 1.11486e-05 0 0 0 1.11486e-05)
(2.22157e-06 0 0 0 2.22157e-06 0 0 0 2.22157e-06)
(2.2939e-05 0 0 0 2.2939e-05 0 0 0 2.2939e-05)
(1.29934e-05 0 0 0 1.29934e-05 0 0 0 1.29934e-05)
(2.22678e-06 0 0 0 2.22678e-06 0 0 0 2.22678e-06)
(2.24965e-06 0 0 0 2.24965e-06 0 0 0 2.24965e-06)
(1.20295e-05 0 0 0 1.20295e-05 0 0 0 1.20295e-05)
(0.000360886 0 0 0 0.000360886 0 0 0 0.000360886)
(2.98619e-05 0 0 0 2.98619e-05 0 0 0 2.98619e-05)
(2.74483e-05 0 0 0 2.74483e-05 0 0 0 2.74483e-05)
(0.000155612 0 0 0 0.000155612 0 0 0 0.000155612)
(1.23455e-05 0 0 0 1.23455e-05 0 0 0 1.23455e-05)
(8.48433e-05 0 0 0 8.48433e-05 0 0 0 8.48433e-05)
(4.33212e-05 0 0 0 4.33212e-05 0 0 0 4.33212e-05)
(1.34931e-06 0 0 0 1.34931e-06 0 0 0 1.34931e-06)
(2.72612e-06 0 0 0 2.72612e-06 0 0 0 2.72612e-06)
(0.000161651 0 0 0 0.000161651 0 0 0 0.000161651)
(3.07327e-05 0 0 0 3.07327e-05 0 0 0 3.07327e-05)
(5.32078e-06 0 0 0 5.32078e-06 0 0 0 5.32078e-06)
(2.96707e-05 0 0 0 2.96707e-05 0 0 0 2.96707e-05)
(0.00018155 0 0 0 0.00018155 0 0 0 0.00018155)
(2.54578e-05 0 0 0 2.54578e-05 0 0 0 2.54578e-05)
(3.97582e-05 0 0 0 3.97582e-05 0 0 0 3.97582e-05)
(8.3034e-06 0 0 0 8.3034e-06 0 0 0 8.3034e-06)
(5.35334e-07 0 0 0 5.35334e-07 0 0 0 5.35334e-07)
(4.88833e-07 0 0 0 4.88833e-07 0 0 0 4.88833e-07)
(5.49219e-05 0 0 0 5.49219e-05 0 0 0 5.49219e-05)
(1.12594e-05 0 0 0 1.12594e-05 0 0 0 1.12594e-05)
(6.79094e-06 0 0 0 6.79094e-06 0 0 0 6.79094e-06)
(0.00013636 0 0 0 0.00013636 0 0 0 0.00013636)
(0.000497949 0 0 0 0.000497949 0 0 0 0.000497949)
(8.02856e-05 0 0 0 8.02856e-05 0 0 0 8.02856e-05)
(0.000295502 0 0 0 0.000295502 0 0 0 0.000295502)
(5.47307e-06 0 0 0 5.47307e-06 0 0 0 5.47307e-06)
(7.16479e-08 0 0 0 7.16479e-08 0 0 0 7.16479e-08)
(5.75216e-06 0 0 0 5.75216e-06 0 0 0 5.75216e-06)
(0.000331049 0 0 0 0.000331049 0 0 0 0.000331049)
(1.39849e-05 0 0 0 1.39849e-05 0 0 0 1.39849e-05)
(1.24148e-05 0 0 0 1.24148e-05 0 0 0 1.24148e-05)
(0.00021729 0 0 0 0.00021729 0 0 0 0.00021729)
(2.54486e-05 0 0 0 2.54486e-05 0 0 0 2.54486e-05)
(2.31167e-05 0 0 0 2.31167e-05 0 0 0 2.31167e-05)
(6.71877e-06 0 0 0 6.71877e-06 0 0 0 6.71877e-06)
(6.47833e-06 0 0 0 6.47833e-06 0 0 0 6.47833e-06)
(4.54405e-07 0 0 0 4.54405e-07 0 0 0 4.54405e-07)
(1.25561e-05 0 0 0 1.25561e-05 0 0 0 1.25561e-05)
(7.17774e-05 0 0 0 7.17774e-05 0 0 0 7.17774e-05)
(2.96504e-05 0 0 0 2.96504e-05 0 0 0 2.96504e-05)
(6.26055e-05 0 0 0 6.26055e-05 0 0 0 6.26055e-05)
(0.000166652 0 0 0 0.000166652 0 0 0 0.000166652)
(1.0496e-06 0 0 0 1.0496e-06 0 0 0 1.0496e-06)
(4.17717e-06 0 0 0 4.17717e-06 0 0 0 4.17717e-06)
(6.03881e-05 0 0 0 6.03881e-05 0 0 0 6.03881e-05)
(8.00958e-05 0 0 0 8.00958e-05 0 0 0 8.00958e-05)
(3.65323e-06 0 0 0 3.65323e-06 0 0 0 3.65323e-06)
(5.72992e-06 0 0 0 5.72992e-06 0 0 0 5.72992e-06)
(0.000730871 0 0 0 0.000730871 0 0 0 0.000730871)
(7.92113e-06 0 0 0 7.92113e-06 0 0 0 7.92113e-06)
(0.000189834 0 0 0 0.000189834 0 0 0 0.000189834)
(0.000128465 0 0 0 0.000128465 0 0 0 0.000128465)
(1.11435e-05 0 0 0 1.11435e-05 0 0 0 1.11435e-05)
(1.40599e-06 0 0 0 1.40599e-06 0 0 0 1.40599e-06)
(1.05345e-05 0 0 0 1.05345e-05 0 0 0 1.05345e-05)
(4.3067e-06 0 0 0 4.3067e-06 0 0 0 4.3067e-06)
(5.14605e-06 0 0 0 5.14605e-06 0 0 0 5.14605e-06)
(2.29945e-06 0 0 0 2.29945e-06 0 0 0 2.29945e-06)
(5.5404e-06 0 0 0 5.5404e-06 0 0 0 5.5404e-06)
(2.36166e-05 0 0 0 2.36166e-05 0 0 0 2.36166e-05)
(8.04354e-05 0 0 0 8.04354e-05 0 0 0 8.04354e-05)
(2.52402e-05 0 0 0 2.52402e-05 0 0 0 2.52402e-05)
(8.81268e-05 0 0 0 8.81268e-05 0 0 0 8.81268e-05)
(8.2563e-06 0 0 0 8.2563e-06 0 0 0 8.2563e-06)
(2.13078e-06 0 0 0 2.13078e-06 0 0 0 2.13078e-06)
(1.93131e-07 0 0 0 1.93131e-07 0 0 0 1.93131e-07)
(1.96413e-05 0 0 0 1.96413e-05 0 0 0 1.96413e-05)
(1.55562e-05 0 0 0 1.55562e-05 0 0 0 1.55562e-05)
(1.74829e-05 0 0 0 1.74829e-05 0 0 0 1.74829e-05)
(0.000299247 0 0 0 0.000299247 0 0 0 0.000299247)
(0.000463216 0 0 0 0.000463216 0 0 0 0.000463216)
(2.14781e-05 0 0 0 2.14781e-05 0 0 0 2.14781e-05)
(1.28018e-05 0 0 0 1.28018e-05 0 0 0 1.28018e-05)
(1.10339e-05 0 0 0 1.10339e-05 0 0 0 1.10339e-05)
(8.58449e-07 0 0 0 8.58449e-07 0 0 0 8.58449e-07)
(4.49715e-06 0 0 0 4.49715e-06 0 0 0 4.49715e-06)
(1.66361e-06 0 0 0 1.66361e-06 0 0 0 1.66361e-06)
(5.90633e-06 0 0 0 5.90633e-06 0 0 0 5.90633e-06)
(4.85171e-06 0 0 0 4.85171e-06 0 0 0 4.85171e-06)
(1.7261e-06 0 0 0 1.7261e-06 0 0 0 1.7261e-06)
(3.99601e-06 0 0 0 3.99601e-06 0 0 0 3.99601e-06)
(3.45343e-05 0 0 0 3.45343e-05 0 0 0 3.45343e-05)
(1.78552e-05 0 0 0 1.78552e-05 0 0 0 1.78552e-05)
(7.88867e-06 0 0 0 7.88867e-06 0 0 0 7.88867e-06)
(3.02537e-05 0 0 0 3.02537e-05 0 0 0 3.02537e-05)
(1.70818e-05 0 0 0 1.70818e-05 0 0 0 1.70818e-05)
(8.39281e-06 0 0 0 8.39281e-06 0 0 0 8.39281e-06)
(8.06011e-06 0 0 0 8.06011e-06 0 0 0 8.06011e-06)
(7.41594e-06 0 0 0 7.41594e-06 0 0 0 7.41594e-06)
(1.39435e-07 0 0 0 1.39435e-07 0 0 0 1.39435e-07)
(5.87031e-06 0 0 0 5.87031e-06 0 0 0 5.87031e-06)
(3.26303e-05 0 0 0 3.26303e-05 0 0 0 3.26303e-05)
(1.87632e-05 0 0 0 1.87632e-05 0 0 0 1.87632e-05)
(6.07812e-06 0 0 0 6.07812e-06 0 0 0 6.07812e-06)
(3.22016e-05 0 0 0 3.22016e-05 0 0 0 3.22016e-05)
(2.71006e-05 0 0 0 2.71006e-05 0 0 0 2.71006e-05)
(2.11957e-06 0 0 0 2.11957e-06 0 0 0 2.11957e-06)
(3.32798e-06 0 0 0 3.32798e-06 0 0 0 3.32798e-06)
(1.25535e-05 0 0 0 1.25535e-05 0 0 0 1.25535e-05)
(0.000249809 0 0 0 0.000249809 0 0 0 0.000249809)
(0.000210157 0 0 0 0.000210157 0 0 0 0.000210157)
(7.03616e-05 0 0 0 7.03616e-05 0 0 0 7.03616e-05)
(0.000202645 0 0 0 0.000202645 0 0 0 0.000202645)
(1.25825e-05 0 0 0 1.25825e-05 0 0 0 1.25825e-05)
(9.811e-05 0 0 0 9.811e-05 0 0 0 9.811e-05)
(7.38185e-05 0 0 0 7.38185e-05 0 0 0 7.38185e-05)
(6.91094e-06 0 0 0 6.91094e-06 0 0 0 6.91094e-06)
(4.61043e-06 0 0 0 4.61043e-06 0 0 0 4.61043e-06)
(0.000104453 0 0 0 0.000104453 0 0 0 0.000104453)
(6.06287e-06 0 0 0 6.06287e-06 0 0 0 6.06287e-06)
(4.21784e-06 0 0 0 4.21784e-06 0 0 0 4.21784e-06)
(1.05703e-05 0 0 0 1.05703e-05 0 0 0 1.05703e-05)
(4.92595e-05 0 0 0 4.92595e-05 0 0 0 4.92595e-05)
(3.0209e-05 0 0 0 3.0209e-05 0 0 0 3.0209e-05)
(2.19787e-05 0 0 0 2.19787e-05 0 0 0 2.19787e-05)
(1.66175e-05 0 0 0 1.66175e-05 0 0 0 1.66175e-05)
(5.87393e-07 0 0 0 5.87393e-07 0 0 0 5.87393e-07)
(4.75323e-07 0 0 0 4.75323e-07 0 0 0 4.75323e-07)
(7.09939e-05 0 0 0 7.09939e-05 0 0 0 7.09939e-05)
(1.39223e-05 0 0 0 1.39223e-05 0 0 0 1.39223e-05)
(1.30525e-05 0 0 0 1.30525e-05 0 0 0 1.30525e-05)
(0.000116728 0 0 0 0.000116728 0 0 0 0.000116728)
(0.000362197 0 0 0 0.000362197 0 0 0 0.000362197)
(6.48853e-05 0 0 0 6.48853e-05 0 0 0 6.48853e-05)
(4.16223e-05 0 0 0 4.16223e-05 0 0 0 4.16223e-05)
(1.94529e-06 0 0 0 1.94529e-06 0 0 0 1.94529e-06)
(1.18846e-07 0 0 0 1.18846e-07 0 0 0 1.18846e-07)
(4.96358e-06 0 0 0 4.96358e-06 0 0 0 4.96358e-06)
(0.000332177 0 0 0 0.000332177 0 0 0 0.000332177)
(1.74553e-05 0 0 0 1.74553e-05 0 0 0 1.74553e-05)
(2.6446e-05 0 0 0 2.6446e-05 0 0 0 2.6446e-05)
(0.000101552 0 0 0 0.000101552 0 0 0 0.000101552)
(1.88499e-05 0 0 0 1.88499e-05 0 0 0 1.88499e-05)
(1.61738e-05 0 0 0 1.61738e-05 0 0 0 1.61738e-05)
(1.96027e-05 0 0 0 1.96027e-05 0 0 0 1.96027e-05)
(3.62586e-06 0 0 0 3.62586e-06 0 0 0 3.62586e-06)
(8.88151e-07 0 0 0 8.88151e-07 0 0 0 8.88151e-07)
(5.04716e-06 0 0 0 5.04716e-06 0 0 0 5.04716e-06)
(2.43915e-05 0 0 0 2.43915e-05 0 0 0 2.43915e-05)
(2.07918e-05 0 0 0 2.07918e-05 0 0 0 2.07918e-05)
(0.000215727 0 0 0 0.000215727 0 0 0 0.000215727)
(0.000150727 0 0 0 0.000150727 0 0 0 0.000150727)
(1.99858e-06 0 0 0 1.99858e-06 0 0 0 1.99858e-06)
(4.68163e-06 0 0 0 4.68163e-06 0 0 0 4.68163e-06)
(3.18645e-05 0 0 0 3.18645e-05 0 0 0 3.18645e-05)
(7.31492e-05 0 0 0 7.31492e-05 0 0 0 7.31492e-05)
(7.18984e-06 0 0 0 7.18984e-06 0 0 0 7.18984e-06)
(1.19084e-05 0 0 0 1.19084e-05 0 0 0 1.19084e-05)
(0.000220081 0 0 0 0.000220081 0 0 0 0.000220081)
(1.10803e-05 0 0 0 1.10803e-05 0 0 0 1.10803e-05)
(0.000115128 0 0 0 0.000115128 0 0 0 0.000115128)
(9.3874e-05 0 0 0 9.3874e-05 0 0 0 9.3874e-05)
(1.13978e-05 0 0 0 1.13978e-05 0 0 0 1.13978e-05)
(3.72676e-06 0 0 0 3.72676e-06 0 0 0 3.72676e-06)
(4.11539e-06 0 0 0 4.11539e-06 0 0 0 4.11539e-06)
(7.45729e-06 0 0 0 7.45729e-06 0 0 0 7.45729e-06)
(7.16658e-06 0 0 0 7.16658e-06 0 0 0 7.16658e-06)
(2.14067e-06 0 0 0 2.14067e-06 0 0 0 2.14067e-06)
(6.63887e-06 0 0 0 6.63887e-06 0 0 0 6.63887e-06)