/*--------------------------------*- C++ -*----------------------------------*\
  =========                 |
  \\      /  F ield         | OpenFOAM: The Open Source CFD Toolbox
   \\    /   O peration     | Website:  https://openfoam.org
    \\  /    A nd           | Version:  7
     \\/     M anipulation  |
\*---------------------------------------------------------------------------*/
FoamFile
{
    version     2.0;
    format      ascii;
    class       volVectorField;
    location    "0.06";
    object      U;
}
// * * * * * * * * * * * * * * * * * * * * * * * * * * * * * * * * * * * * * //

dimensions      [0 1 -1 0 0 0 0];

internalField   nonuniform List<vector> 
64000
(
(-0.000402448 -0.000785579 0.00542347)
(-0.00134109 -0.00152515 0.0107077)
(-0.00221045 0.000189903 0.00396375)
(-0.00170753 0.022061 0.215888)
(0.000803598 1.71886e-05 0.00412181)
(0.000234031 8.11526e-05 0.000836214)
(0.000235198 0.000439562 0.00240204)
(0.000202606 0.000193622 0.00031806)
(0.000131608 0.000259928 0.00192126)
(7.6974e-05 0.000427693 0.00578691)
(5.91454e-05 -0.000498943 0.00107616)
(-0.000264648 -0.000838603 0.000324303)
(0.00598065 -0.00459546 0.0290411)
(0.00459614 0.0106211 0.214233)
(-0.000598024 0.000156611 0.000964551)
(8.63138e-05 3.42718e-05 0.000736019)
(0.000101535 0.00023645 0.00126334)
(0.000228477 0.000275814 0.00300437)
(0.000184872 0.000216417 0.00208714)
(-4.79167e-05 0.00061236 0.00393696)
(0.000214067 -5.21579e-05 0.00226672)
(-0.00274945 -0.000217768 0.0197324)
(-0.000816482 -0.00459052 0.0954944)
(0.00289025 -0.014075 0.068364)
(0.000116237 -0.000187058 0.00136613)
(0.000229503 -0.000285609 0.0015064)
(0.000259505 -6.65181e-05 0.000493007)
(0.000293386 0.000230563 0.00297996)
(0.000229392 0.000262536 0.00122342)
(8.57118e-05 0.00047585 0.000884355)
(-0.000360334 6.96013e-06 0.00140057)
(-0.000225073 6.97237e-05 0.00385249)
(4.32761e-06 0.000277614 0.00012014)
(0.000223207 1.30709e-05 0.00898845)
(0.000210328 0.000530718 0.00859109)
(0.000258217 5.05163e-05 0.00764306)
(0.00018383 -4.613e-05 0.000275074)
(0.000177325 6.457e-05 6.37922e-05)
(0.000334628 0.000236148 0.00273056)
(0.000227513 0.000105215 0.00241821)
(0.000345994 -0.000750923 0.0132507)
(-1.23574e-05 6.55769e-05 5.46069e-05)
(-5.10462e-06 0.000113657 0.000965018)
(-2.28441e-05 0.000421832 0.000459412)
(-0.000761167 0.000444562 0.0203126)
(-0.000363359 -0.000729072 0.057164)
(0.000579425 -4.05162e-05 0.00341921)
(0.00040945 -2.15942e-05 0.000206447)
(0.000299601 9.03626e-05 0.00112678)
(0.000157152 -0.000122949 0.0030126)
(0.00145743 -0.000436401 0.0119353)
(0.000300535 1.50893e-05 0.000225364)
(8.30293e-05 0.000137866 0.00213207)
(-0.000707498 0.000489123 0.00440083)
(-0.00212311 0.00040079 0.0118305)
(-0.000969521 -2.70661e-05 0.0948787)
(0.000744988 0.000102588 0.00153941)
(0.000426939 0.000121358 0.000281718)
(0.000299212 0.000145955 0.00100356)
(-0.00013716 0.0002351 0.00901108)
(0.000760233 0.000874277 0.00962116)
(0.000574742 0.000385713 0.00120158)
(0.000166527 8.25035e-06 0.00185792)
(-0.000645095 0.000264139 0.00846978)
(-0.000923189 0.000758975 0.0056067)
(-0.00022584 0.00153372 0.0017446)
(0.000301802 0.000247506 0.000498918)
(0.000404721 0.000208656 0.000828622)
(0.000378849 0.000126201 0.002816)
(-0.000325538 0.000549077 0.00456107)
(0.000443939 0.000606003 0.00907198)
(0.0013361 0.000538825 0.0285044)
(0.00119872 -0.000102305 0.0050292)
(4.2243e-08 -3.94554e-05 0.00179725)
(-4.8269e-05 0.000266755 0.00387635)
(0.000441539 0.000624015 0.00626657)
(0.000980745 2.55742e-05 0.00106417)
(0.0010725 0.000332082 0.00449863)
(0.00123169 -4.2121e-05 0.000647222)
(0.000171601 0.000656406 0.0353858)
(6.46474e-05 -4.19973e-05 0.00210727)
(0.000198565 0.000131146 0.00172415)
(0.000210406 -0.000149065 0.00388841)
(-0.000154329 4.62891e-05 0.00272949)
(-0.000132699 7.91038e-05 0.00335612)
(0.00012494 0.00021008 0.000829681)
(0.000235881 4.14887e-05 4.2223e-05)
(0.000454773 0.000482133 0.00218158)
(0.00059441 5.9583e-05 0.00182444)
(-2.34075e-05 0.00108045 0.0117704)
(-8.51879e-05 -0.000129917 0.000176864)
(0.000184525 -0.000629551 0.00438913)
(0.000503064 -0.000480344 0.00316727)
(0.000285713 -0.000129983 0.00351773)
(3.56058e-06 8.36093e-05 0.000145493)
(1.50565e-05 0.000152125 6.49297e-05)
(3.16416e-05 9.2442e-06 6.83318e-05)
(2.72477e-05 0.000315001 0.000399283)
(3.05743e-05 0.000245628 0.000238304)
(-0.00024578 0.00134131 0.000333295)
(-0.00145064 -0.00287267 0.00616864)
(-0.0054127 -0.00621837 0.0145116)
(-0.00806581 -0.0015466 0.00367215)
(0.000925882 -0.00526269 0.105786)
(0.00549657 -0.00254207 0.0063878)
(0.0011363 -0.000346004 0.00035871)
(0.000361492 0.00110117 0.00210576)
(0.000346905 0.000357083 0.000315705)
(0.000198536 0.000693881 0.00135873)
(0.000146141 0.0011904 0.00482173)
(-7.92327e-05 -0.00130393 0.000740465)
(-0.00206794 -0.00376935 0.000326371)
(-0.00119932 -0.00341656 0.0245227)
(0.00128706 -3.10143e-05 0.331959)
(0.00140326 -7.29293e-05 0.000661112)
(0.00131157 0.00010676 0.00111089)
(0.000998775 0.000515763 0.00395963)
(0.0010596 0.00036537 0.00204761)
(0.0008867 0.000741117 0.00399701)
(0.000214396 0.00155445 0.00357949)
(-0.00173169 6.308e-05 0.00144228)
(-0.00644258 -8.42223e-05 0.0292206)
(-0.00416218 -0.00122749 0.0575581)
(0.00253403 -0.00676245 0.0268538)
(0.00138537 0.000563502 0.00061776)
(0.00101732 -0.000327995 0.00258331)
(0.000917166 -0.000226384 0.000525784)
(0.00101889 0.000485578 0.0023277)
(0.000831678 0.000893375 0.00102291)
(0.000327747 0.00157753 0.00152215)
(-0.00087748 0.000458631 0.00389261)
(-0.000961628 0.00119924 0.00296422)
(0.000204167 0.00138731 0.000274927)
(0.00139243 0.00295349 0.00706633)
(0.00137903 0.00258203 0.00584625)
(0.000809294 3.56905e-05 0.00529849)
(0.00063287 -0.000427845 0.0011494)
(0.000790673 0.000239465 9.35633e-05)
(0.00156352 0.000774707 0.0030782)
(0.00143752 0.000793274 0.00573888)
(0.000108343 -0.000292784 0.0162624)
(-5.10666e-05 0.000444723 7.27696e-05)
(1.02711e-05 0.000621774 0.00183656)
(-0.00034786 0.00226766 0.00161804)
(-0.000767049 0.00293996 0.026974)
(0.000649906 0.000476508 0.055044)
(0.00182981 -0.000392484 0.00410573)
(0.00107095 -5.92143e-05 0.000183889)
(0.00086584 0.000403577 0.00107052)
(0.000681078 0.000377104 0.00344311)
(0.00254359 0.000236765 0.013469)
(0.00103118 -2.34544e-06 0.000343123)
(0.00033651 0.00052434 0.003537)
(-0.00218345 0.00179892 0.00931188)
(-0.00395788 0.00208576 0.011521)
(-0.000877683 0.00241659 0.0764228)
(0.00178587 0.000455262 0.00170529)
(0.00112309 0.000195293 0.000293122)
(0.000934209 0.000412595 0.00105833)
(0.000309375 0.000591093 0.0101503)
(0.00124895 0.00190588 0.00773293)
(0.00114522 0.000383195 0.000888755)
(0.000210753 0.000263249 0.00450624)
(-0.00160623 0.000905946 0.0143237)
(-0.00174442 0.00161015 0.00382895)
(-0.000100095 0.00336296 0.00230776)
(0.000987082 0.000808263 0.0012603)
(0.00127868 0.000170999 0.000464101)
(0.00133964 0.000452476 0.00324287)
(-2.9631e-05 0.00124141 0.00681123)
(0.001707 0.00125888 0.0110944)
(0.00412498 0.000962047 0.0218422)
(0.00299588 0.000297213 0.01188)
(-8.99286e-05 0.000141012 0.00133503)
(0.000209876 0.000471393 0.0041941)
(0.000893385 0.00142095 0.00683499)
(0.00146737 0.000372269 0.00125914)
(0.00161819 0.00044065 0.00253026)
(0.00197031 0.000139253 0.00101316)
(0.000237314 0.000414239 0.0440829)
(0.000456874 0.000113281 0.00214203)
(0.00124957 0.000632497 0.00366765)
(0.00084716 0.000270402 0.00950103)
(-0.000327063 0.000450182 0.00357427)
(-8.19045e-05 0.00017221 0.00185379)
(0.00031737 0.000521157 0.00116928)
(0.000592416 0.000196436 0.000124384)
(0.00109229 0.000781135 0.00162392)
(0.00147032 8.77031e-05 0.00202866)
(0.000765337 0.000159866 0.0104838)
(-0.000116593 -0.000364764 0.000738844)
(0.000362374 -0.00090725 0.00407516)
(0.000798393 -0.000667639 0.00217838)
(0.000495275 -7.97773e-06 0.00551788)
(0.000119558 0.000146946 0.000335245)
(4.77686e-05 0.000369676 5.94982e-05)
(0.000106059 4.42429e-05 8.50386e-05)
(7.30827e-05 0.000642754 0.000607794)
(1.51024e-05 0.000639438 0.000249161)
(-0.00027513 0.00154024 0.000457892)
(-0.00241389 -0.00327917 0.00731208)
(-0.0107156 -0.0128221 0.0341517)
(-0.0110323 -0.00978297 0.00604053)
(0.00451526 -0.0277003 0.0284652)
(0.00763752 -0.00933762 0.0102169)
(0.00153915 -0.000420318 0.000107767)
(0.000378648 0.00131563 0.00205123)
(0.000414896 0.000337962 0.000456496)
(0.000249345 0.000674728 0.000731953)
(0.000147976 0.00232379 0.00392629)
(-0.000224326 -0.000837218 0.000381613)
(-0.00652894 -0.00974076 0.000943288)
(-0.0265727 -0.00519741 0.0260389)
(-0.0155193 -0.00688052 0.280975)
(0.00603055 -0.00292666 0.00056732)
(0.00271527 4.49217e-05 0.00139535)
(0.00294127 0.000296566 0.00825451)
(0.00310661 0.000142934 0.00123811)
(0.00249473 0.00133115 0.00538643)
(0.0012213 0.00256167 0.00316953)
(-0.00248401 0.00155588 0.000743669)
(-0.00755 0.000199465 0.032808)
(-0.0079321 0.00613247 0.0316415)
(-0.00131337 0.00841213 0.00597614)
(0.00266789 0.00057599 0.000223629)
(0.00190804 9.28311e-05 0.00385233)
(0.00085425 -0.000237875 0.000539401)
(0.000625267 0.000145127 0.0010934)
(0.00100746 0.00165496 0.000828431)
(0.000919992 0.00286062 0.00262697)
(5.8354e-05 0.00220724 0.0155328)
(-0.00196964 0.00229623 0.00189786)
(0.000511635 0.00479853 0.00105175)
(0.00152827 0.00492194 0.00757237)
(0.00152306 0.00186635 0.0031109)
(0.00147511 -0.000526209 0.00568778)
(0.00166878 -0.000633509 0.00367713)
(0.00168629 -4.01751e-05 7.94914e-05)
(0.00253858 0.000872826 0.00246767)
(0.00261425 0.00211569 0.0104062)
(0.000894482 0.00163958 0.0161792)
(0.001173 0.000233415 0.000186999)
(0.000789844 0.00304598 0.00462365)
(-0.00129307 0.00435441 0.00545457)
(-0.00036745 0.00362028 0.024493)
(0.00218637 0.00436738 0.0398777)
(0.00208567 -0.000532465 0.00390661)
(0.00122319 -3.64427e-05 0.000156928)
(0.00106399 0.000560439 0.000816113)
(0.000651286 0.00170119 0.00419982)
(0.00172808 0.00237386 0.0126587)
(0.00246911 -6.6502e-05 0.000537786)
(0.00140995 0.00166589 0.00791858)
(-0.00187738 0.00215197 0.0228467)
(-0.00147606 0.00271505 0.00808408)
(0.00105098 0.00758323 0.0721394)
(0.00151076 0.00101476 0.00158856)
(0.00123935 6.24505e-05 0.000202258)
(0.00153869 0.000304495 0.00109877)
(0.00106365 0.000460988 0.0153219)
(0.00115273 0.00222559 0.00590105)
(0.00178118 9.29028e-05 0.00075827)
(0.000176613 0.000579765 0.0106883)
(-0.0011155 9.22957e-05 0.0166617)
(-0.00056474 0.000781862 0.00233816)
(0.000302857 0.00397857 0.00231753)
(0.00170427 0.00112545 0.00224495)
(0.00219432 -9.15361e-05 0.00017508)
(0.00196378 0.00041299 0.00286997)
(0.000829812 0.000348152 0.00748361)
(0.0019351 0.0013602 0.0105932)
(0.00393604 0.000958394 0.0126541)
(0.00234484 0.00144022 0.0190705)
(-4.55234e-05 0.000322549 0.000778626)
(0.000831725 0.000242137 0.00299215)
(0.00142205 0.00200223 0.00987747)
(0.00151284 0.000514132 0.00215829)
(0.00148379 0.000129802 0.000804434)
(0.0023149 0.000138044 0.00112906)
(0.00121157 -0.000977755 0.0611669)
(0.00103612 0.000606553 0.00167205)
(0.00149885 0.000999239 0.00812411)
(0.00061293 0.00209671 0.0182024)
(2.35267e-06 0.000696814 0.00268677)
(0.000197498 0.000182822 0.000750311)
(0.000460466 0.000679506 0.00155001)
(0.000714284 0.000378455 0.000315606)
(0.000717686 0.000526709 0.000881552)
(0.000893654 -0.000166395 0.00143129)
(0.00142851 -0.00220258 0.00600108)
(0.000262349 -0.000163202 0.0020157)
(0.00040131 -0.000401663 0.00363955)
(0.000592985 0.000133913 0.00259417)
(0.00069472 0.000429702 0.00817182)
(0.000452742 0.000153129 0.0010781)
(0.000140912 0.000449515 6.54403e-05)
(0.000340899 0.000193364 0.00010355)
(0.000275972 0.000546047 0.00161797)
(3.17704e-05 0.000212361 0.000400364)
(0.00016318 -0.000966364 0.00110467)
(-0.00308892 -0.00327777 0.0120203)
(-0.013582 -0.0153846 0.0720041)
(-0.012859 -0.01086 0.00954181)
(0.000835751 -0.0224994 0.00526443)
(0.00388741 -0.0101762 0.00894896)
(0.000651344 -0.000332865 0.000170771)
(0.000351604 0.00032584 0.00230332)
(0.000602679 0.000330158 0.000579566)
(0.000536818 0.000521711 0.000547264)
(0.00059437 0.00190765 0.00265844)
(-0.000172698 -0.000560382 0.000202845)
(-0.00659425 -0.0146139 0.00143272)
(-0.0204369 -0.00870505 0.024379)
(-0.00859422 -0.00545527 0.1208)
(0.00656749 -0.00335142 0.00117003)
(0.00195085 -7.91518e-05 0.00149915)
(0.00240823 -5.90587e-06 0.00977274)
(0.00300595 0.000140635 0.000921343)
(0.00275532 0.00123239 0.00453605)
(0.0021331 0.00237411 0.00240037)
(-0.0015859 0.00164321 0.000298105)
(-0.0031219 -0.00231202 0.0208125)
(-0.00291316 0.00359675 0.0186859)
(-0.00105203 0.0132551 0.00423897)
(0.00183734 0.00057654 0.000272493)
(0.00128081 0.000426145 0.00431428)
(0.000601484 -0.00012814 0.00110289)
(0.000526567 6.33275e-05 0.000431292)
(0.00123498 0.00134934 0.000573916)
(0.00142946 0.0032391 0.00292818)
(0.00379803 0.0012563 0.0393472)
(-0.000838871 0.00194707 0.00250599)
(0.00089423 0.00477587 0.00278393)
(0.00122484 0.00832332 0.0147399)
(0.00173899 0.000370596 0.00198802)
(0.00203527 -0.000447243 0.0100674)
(0.00175 -0.00070253 0.00701994)
(0.00129123 -8.6176e-05 0.000114938)
(0.00179128 0.000422897 0.00115348)
(0.00236479 0.0022943 0.0150061)
(0.0011635 3.35772e-05 0.0119855)
(0.00208077 6.82227e-05 0.00048627)
(0.00177335 0.00342183 0.00655828)
(-0.000734199 0.00535678 0.0136636)
(-0.000592091 0.0011773 0.0124005)
(0.00124903 0.00256248 0.0190365)
(0.00105176 -0.000545848 0.00260449)
(0.000687879 1.25429e-05 0.00011718)
(0.000688075 0.000243465 0.00038496)
(0.000412902 0.00103346 0.0053821)
(0.00143216 0.000836291 0.00758952)
(0.00268713 -6.13585e-05 0.000739372)
(0.00194408 0.00265411 0.014223)
(-0.00125419 0.00177471 0.0441378)
(-0.00374402 0.00157557 0.00668989)
(-0.00105407 0.00692426 0.0724235)
(0.00203651 0.000795632 0.00116298)
(0.00142116 -6.97261e-05 6.65017e-05)
(0.00174674 9.85085e-06 0.000948072)
(0.000827629 -0.000600031 0.0255317)
(0.00240265 0.00175859 0.00425639)
(0.00205498 8.67541e-05 0.00111718)
(-1.90211e-05 0.00124623 0.0198518)
(-0.000712296 -0.000491722 0.0110497)
(2.94268e-05 0.00044154 0.00228614)
(8.80493e-05 0.00582057 0.00157077)
(0.00159495 0.00162614 0.00236907)
(0.00210632 -0.000224235 0.000112167)
(0.00183707 0.000191812 0.00201448)
(0.00129549 -0.00160309 0.00713068)
(0.00299469 0.0020862 0.00803713)
(0.00269841 0.00135158 0.00853846)
(0.000559253 0.00132468 0.021729)
(-0.000119475 0.000336006 0.000341214)
(0.000611156 0.0002016 0.00129663)
(0.00251111 0.00293443 0.0124977)
(0.00328145 0.001083 0.00594058)
(0.00181271 0.000130787 0.00032872)
(0.00199016 0.000106711 0.000826406)
(0.00160784 -0.00116858 0.0739046)
(0.00179947 0.00108653 0.00120154)
(0.0011092 0.00189936 0.0163803)
(0.00015423 0.00192433 0.0217921)
(0.000479674 0.00053926 0.00148446)
(0.000110465 0.000125456 0.000386802)
(0.000418493 0.000831398 0.00172007)
(0.00101576 0.00100874 0.000523464)
(0.000759418 0.00113711 0.000577403)
(0.000403995 1.66648e-05 0.000694033)
(0.000798721 -0.000904445 0.00191106)
(0.000541459 0.000151843 0.00302183)
(0.000227588 0.000420842 0.0056397)
(0.000379824 0.000707453 0.00392144)
(0.000977533 0.000528962 0.0101865)
(0.000777532 0.000310027 0.00174403)
(0.000346003 0.000508461 0.000178258)
(0.000628061 0.000370692 7.41193e-05)
(0.000976073 0.00132419 0.00299458)
(0.000364759 0.000668235 0.00115484)
(0.000108862 -0.00104288 0.0021859)
(-0.00487946 -0.0023829 0.0229827)
(-0.0105967 -0.0105402 0.0861407)
(-0.00631294 -0.00578113 0.00826241)
(-0.00047724 -0.00433348 0.00207754)
(0.000473501 -0.00314982 0.00389166)
(-0.000136597 -0.000154949 0.000221123)
(8.4389e-05 0.000147426 0.00195555)
(0.00050822 0.000393164 0.000513752)
(0.000571442 0.000506925 0.00070428)
(0.000484056 0.000687903 0.00131043)
(6.13441e-05 -0.000283202 0.00017867)
(-0.00201499 -0.00436869 0.000934594)
(-0.00513168 -0.00501291 0.0133588)
(-0.00164449 -0.000818941 0.025171)
(0.00222319 -0.000775024 0.00172182)
(0.000687938 -0.000300578 0.00268597)
(0.00106891 0.000262215 0.0071141)
(0.00202684 0.000100984 0.000996433)
(0.00193393 0.00086336 0.00284481)
(0.00179875 0.00101675 0.00143223)
(-6.49668e-05 -2.62802e-05 5.67784e-05)
(0.000140812 -0.000439045 0.00595651)
(0.000466967 0.000310345 0.00941684)
(0.000288278 0.00404533 0.00383012)
(0.000603189 0.000119808 0.000619372)
(0.000840768 -0.000778536 0.00481971)
(0.000746703 -9.37383e-05 0.0028562)
(0.000657069 -2.2909e-06 0.00039024)
(0.000892518 0.00089882 0.000444057)
(0.000970098 0.00163591 0.00211822)
(0.00723337 -0.00161015 0.0533516)
(0.00479398 0.000280653 0.0125321)
(0.00076731 0.000819985 0.00603603)
(0.000843343 0.00177471 0.0253876)
(0.00146152 -0.000355475 0.00209981)
(0.0023804 -0.00282936 0.0151692)
(0.00212709 -0.000955536 0.0103467)
(0.00125356 -7.47403e-05 0.000516583)
(0.00134346 0.000262225 0.000475227)
(0.00312432 0.000672228 0.0169664)
(0.000472758 -0.00137687 0.00624684)
(0.000742744 3.26977e-05 0.000773881)
(0.000628737 0.000556174 0.00481083)
(-5.94201e-05 0.000364207 0.0181489)
(-0.000615506 -0.000255163 0.00551263)
(0.000936373 -0.00419439 0.00833539)
(0.00100816 -0.000839799 0.00227832)
(0.00032461 2.24264e-05 0.000104627)
(0.000272982 8.96726e-05 0.000107754)
(0.000981942 -0.00133054 0.00707716)
(0.000706412 -0.000120485 0.0033987)
(0.00081826 0.000192788 0.00121355)
(-8.72253e-05 0.00172147 0.018006)
(-0.00202961 0.00122098 0.0596996)
(-0.00464459 0.000882441 0.00955575)
(-0.00170129 0.0014601 0.0470648)
(0.00192899 0.000317619 0.00083845)
(0.00110035 -4.65151e-05 1.99717e-05)
(0.00127293 -7.39326e-05 0.000725999)
(0.00182658 -0.0039374 0.0357646)
(0.00263504 0.000696787 0.0032725)
(0.000858899 0.000776905 0.0023493)
(-0.000849126 0.00311865 0.0242983)
(-0.00054837 0.000496357 0.00506601)
(3.14464e-05 0.001004 0.00290761)
(1.88625e-05 0.00549149 0.00204876)
(0.000935668 0.00182833 0.00151796)
(0.00120848 -0.000242631 0.000100716)
(0.0011904 0.000103915 0.00134853)
(0.00209522 -0.00533844 0.00649618)
(0.00363365 0.00118427 0.00583288)
(0.00146456 0.000613943 0.0160608)
(-0.000901012 0.00255978 0.023768)
(1.82625e-05 0.000306295 0.000206133)
(0.000585401 0.000495503 0.00075323)
(0.00329587 0.00247704 0.010761)
(0.00480993 0.00167415 0.0114425)
(0.00295534 0.00016475 0.000696391)
(0.00207561 8.16192e-05 0.000812577)
(0.00297765 -0.000562297 0.0648538)
(0.00112249 0.000687725 0.00131524)
(0.000392255 0.00090762 0.0226299)
(4.58815e-05 0.00087115 0.0191353)
(0.00062016 0.000332826 0.00153407)
(0.000278027 -4.48526e-06 0.000346016)
(0.000388557 0.00118644 0.00160262)
(0.00112164 0.00152413 0.00087198)
(0.00106676 0.00182282 0.000725553)
(0.000335515 0.000542935 0.000393391)
(0.00160398 0.00245332 0.000823336)
(0.000954518 0.000158129 0.00331654)
(0.000287664 0.00110776 0.0101859)
(0.000171164 0.000594036 0.00395075)
(0.00105885 0.000524206 0.0100422)
(0.00132171 0.00024543 0.00133627)
(0.000698677 0.000963475 0.00100418)
(0.000877894 0.000377261 4.24454e-05)
(0.0015826 0.00200685 0.00307681)
(0.000823905 0.00186199 0.00233721)
(-0.000291185 0.000891798 0.00241683)
(-0.00710817 -0.00050309 0.0430858)
(-0.00866124 -0.00572552 0.0600778)
(-0.00162858 -0.00104553 0.00352119)
(0.000155308 -0.00079177 0.00151551)
(0.000205016 -0.000279859 0.0012892)
(6.94287e-05 0.000127809 0.00015183)
(0.000104769 0.000406817 0.00103408)
(0.000421323 0.000608402 0.000374224)
(0.000562177 0.000388098 0.00120829)
(0.000391684 0.000420984 0.000725727)
(2.41314e-05 -0.000339971 0.000156227)
(-0.000648145 -0.00101829 0.000608815)
(-0.000563315 -0.0012314 0.00601427)
(0.000429291 -0.000494257 0.00576439)
(0.000851828 -6.04573e-05 0.00151442)
(0.000732444 -0.000156704 0.00492092)
(0.000999368 0.000650744 0.00374365)
(0.00136009 0.000165952 0.00229752)
(0.00103588 0.000474908 0.00174451)
(0.00083114 0.000653118 0.00121009)
(9.81111e-05 -0.000217458 2.45175e-05)
(0.000212056 -0.000213389 0.00143833)
(0.000403244 -0.000760316 0.00581376)
(0.000702063 -0.00132798 0.00505663)
(0.000727189 -0.000287125 0.00152191)
(0.00137994 -0.00112462 0.0052383)
(0.00142867 5.2927e-05 0.00660054)
(0.000825312 -2.87187e-05 0.000489084)
(0.000702209 0.000518754 0.000673942)
(0.000817038 0.000375663 0.00248403)
(0.00894317 -0.00118249 0.0476651)
(0.00655438 -0.000525548 0.0330145)
(0.000652722 -0.000917947 0.00915892)
(0.00200254 -0.00384705 0.0299515)
(0.00316416 -0.00093531 0.00282405)
(0.00484267 -0.00268487 0.0160455)
(0.00464225 -0.00124134 0.0160501)
(0.00237439 -0.000148907 0.00198981)
(0.00192167 0.000159141 0.000575723)
(0.0031851 0.000232827 0.0134187)
(0.000298308 -0.000419624 0.00198149)
(9.24347e-05 -0.00011676 0.00108548)
(-0.000157845 -0.000667962 0.00221424)
(0.000491098 -0.00239284 0.0109007)
(0.00107417 -0.0011199 0.00455997)
(0.00170693 -0.00305943 0.00492629)
(0.00123378 -0.00117743 0.00351352)
(0.000350234 -2.25124e-05 0.000174098)
(0.000285044 7.09467e-05 9.16668e-05)
(0.00239578 -0.00247391 0.011914)
(0.000506903 0.000291037 0.00222957)
(-0.000305464 0.000412039 0.00263779)
(-0.000987806 0.000597927 0.0170506)
(-0.00034317 0.000925621 0.0615063)
(-0.000222858 0.000392251 0.00901484)
(0.000464099 0.00114478 0.0170757)
(0.00111746 -0.000272004 0.000505185)
(0.000454742 7.99509e-06 2.13871e-05)
(0.000616253 -0.000115833 0.00061565)
(0.00386466 -0.00529844 0.0341961)
(0.00212077 0.000583592 0.00393115)
(-0.000640179 0.00237408 0.00456)
(-0.00166147 0.00334273 0.0175693)
(0.000113109 0.00100211 0.00296012)
(0.00131237 0.00135322 0.00261905)
(0.00137577 0.00329558 0.00719399)
(0.000773598 0.00108613 0.000711448)
(0.000473734 -0.000103796 0.000168699)
(0.000437089 5.02368e-06 0.000752372)
(0.0013293 -0.00386601 0.00384565)
(0.00359807 0.000193888 0.00461896)
(-0.000691743 -0.000265458 0.042051)
(-0.00309109 0.00258968 0.0254227)
(6.20079e-05 0.000357999 0.000240691)
(0.000691674 0.000525143 0.000884465)
(0.00235018 0.00112419 0.00666385)
(0.00381074 0.00177985 0.0123356)
(0.0033795 0.000239159 0.00115551)
(0.00203808 0.000198844 0.00141084)
(0.00384646 0.00190872 0.0350471)
(0.000382498 3.03192e-05 0.00179858)
(-0.000360254 -0.00257933 0.0213996)
(-0.000209954 -0.000301122 0.0137073)
(0.000653936 5.11863e-05 0.00193035)
(0.000494861 2.23393e-05 0.000555001)
(0.000331479 0.00127865 0.00097784)
(0.000997972 0.00178395 0.00163641)
(0.00120282 0.00180688 0.00128019)
(0.000328403 0.00107653 0.000456571)
(0.00296958 0.00400418 0.000967639)
(0.000433555 0.000385974 0.0030263)
(0.000269105 4.35518e-05 0.0113191)
(0.000264543 0.000378631 0.00341671)
(0.00113165 0.000521691 0.0060796)
(0.00200306 -1.69348e-05 0.000500066)
(0.00151878 0.0012876 0.00236772)
(0.00161397 0.000288339 0.000161619)
(0.00160863 0.00223873 0.00249468)
(0.000561974 0.00234209 0.00306308)
(-0.000428631 0.00116249 0.00168095)
(-0.00202595 -0.00277155 0.0537075)
(-0.00163874 -0.00139808 0.0346315)
(0.000191124 0.000204159 0.000815442)
(1.8863e-05 0.000902535 0.00118958)
(0.000189912 0.00124318 0.000684929)
(0.000335954 0.000337292 7.90062e-05)
(0.000102795 0.000235993 0.000402318)
(0.000358759 0.000484381 0.000248885)
(0.000519155 0.000375664 0.00195142)
(0.000320697 0.000346774 0.000414317)
(7.55065e-06 -4.78135e-05 0.0001)
(0.000231935 0.000261322 0.000649714)
(0.000819917 0.00032775 0.00377519)
(0.00111383 0.000766012 0.0051616)
(0.00149654 0.000622799 0.00133789)
(0.00179199 0.000702969 0.00606694)
(0.00183373 0.000461946 0.00161419)
(0.00186671 -0.000130717 0.00460582)
(0.00129769 0.000488745 0.00143359)
(0.00070139 0.000713922 0.00130661)
(6.14299e-05 -1.48479e-05 2.15676e-05)
(0.000307095 -0.000167094 0.000582925)
(0.00114656 -0.00035798 0.00521859)
(0.00208544 -0.00171826 0.0105267)
(0.00196079 -0.000194611 0.00366428)
(0.00222214 4.09509e-05 0.00544634)
(0.00248407 0.000375984 0.010411)
(0.00175538 -0.000219219 0.000758083)
(0.00131338 0.000302994 0.00153893)
(0.00152849 0.000514482 0.00394418)
(0.00821111 -0.000702064 0.0389212)
(0.00657474 -0.000449511 0.0511586)
(0.00243068 -0.00094366 0.0109179)
(0.00387395 -0.00387278 0.0262156)
(0.00434935 -0.00104549 0.00618272)
(0.00522364 -0.000954307 0.010794)
(0.00605016 -0.000903739 0.0240449)
(0.00404167 -2.63369e-05 0.00447631)
(0.00288922 7.99177e-05 0.000996776)
(0.00225009 0.000910271 0.00836685)
(0.00054845 -0.000145402 0.000658709)
(0.000104252 0.000362274 0.00169225)
(-3.25328e-05 -0.000648462 0.001142)
(0.000521981 -0.00307037 0.00264882)
(0.00129897 -0.00110803 0.00343558)
(0.00177886 -0.000621191 0.00344382)
(0.00153739 -0.000979161 0.00416244)
(0.000764034 0.000128507 0.00106159)
(0.00075435 0.0002118 0.000163415)
(0.00487456 -0.00210326 0.0171331)
(0.000474395 0.000348939 0.00148357)
(-0.000780807 0.00063062 0.00603428)
(-0.00181753 0.000454515 0.0130392)
(0.000789566 -0.000256137 0.0503648)
(0.00284202 0.000102203 0.00450613)
(0.0014515 0.00169581 0.00454301)
(0.000363027 -0.000229398 0.00020313)
(0.000170226 4.90337e-05 2.31304e-05)
(0.000339279 -0.00012073 0.000481714)
(0.00337053 -0.00356641 0.0186011)
(0.00114093 0.000595209 0.00463096)
(-0.000249908 0.000945355 0.00813622)
(-0.00114524 0.00242455 0.00829163)
(0.00033037 0.00132674 0.00208012)
(0.00249568 0.000786239 0.00125872)
(0.00285565 0.0031293 0.0138616)
(0.0014535 0.000990249 0.000527407)
(0.000367684 2.66284e-05 0.000257296)
(0.000193399 -1.06318e-05 0.000423513)
(0.000493361 -0.000896512 0.00118203)
(0.0014906 0.000281262 0.00461829)
(0.00016488 -0.000462563 0.0668635)
(-0.000671091 0.00133201 0.0279428)
(0.000360804 0.000388586 0.000232648)
(0.000618502 7.86962e-05 0.00107701)
(0.00170758 0.00184044 0.00402007)
(0.00284075 0.00228413 0.00996491)
(0.00236618 0.000556293 0.0012711)
(0.00103509 0.000447198 0.00213295)
(0.00148278 0.000762924 0.0108347)
(-9.83036e-05 0.000212063 0.00204862)
(-0.000560292 -0.00138017 0.0190507)
(2.34696e-05 -0.000441498 0.00684579)
(0.000938133 -4.93821e-06 0.00275681)
(0.000640866 0.000108909 0.000611782)
(0.000492975 0.00102415 0.000489465)
(0.00137856 0.00198038 0.00208984)
(0.00154428 0.00167381 0.00296059)
(0.000474784 0.00102352 0.00133794)
(0.00115247 0.00124665 0.00164849)
(-0.000649638 0.00103182 0.00203552)
(-0.000358241 1.20475e-05 0.00715123)
(0.000186374 0.000420414 0.00256047)
(0.000526526 0.000179663 0.00185063)
(0.000919249 0.000164207 0.000140889)
(0.00133833 0.000736718 0.00225774)
(0.00194558 0.000654194 0.000359725)
(0.00152386 0.00233046 0.00246447)
(0.000479294 0.00172706 0.00324744)
(-0.000150853 0.000297771 0.00129648)
(0.00175354 -0.0032475 0.0397208)
(0.00366501 0.00112111 0.0241808)
(0.00174092 0.00132579 0.00030616)
(6.51731e-05 0.00190674 0.000720005)
(-1.99154e-06 0.00150734 0.000361315)
(0.000220358 0.000256761 5.83716e-05)
(9.17195e-05 7.12882e-05 0.000178641)
(0.000312527 0.000346357 0.000234422)
(0.000536206 0.000351417 0.00248283)
(0.000358217 0.00024098 0.0002562)
(3.44279e-05 0.000305064 0.00028156)
(0.00135806 0.00221357 0.000846088)
(0.00288414 0.00229358 0.00351328)
(0.00269975 0.0026837 0.0059536)
(0.00239612 0.00115853 0.00160792)
(0.00212139 0.00114264 0.00499365)
(0.00198983 0.000134184 0.000667156)
(0.00199003 -9.54144e-05 0.00626752)
(0.00143267 0.000624114 0.001526)
(0.000795418 0.00053036 0.00147027)
(3.71411e-05 0.000108168 2.48726e-05)
(0.000500347 0.000180125 0.000733615)
(0.00237348 0.00056049 0.0052885)
(0.00518065 0.000732121 0.0158181)
(0.00590302 0.000204414 0.00797662)
(0.00443013 0.000932131 0.00891574)
(0.00298576 0.00150299 0.0103487)
(0.00228445 -0.000173588 0.00105701)
(0.00214282 0.000561235 0.00277735)
(0.00214629 0.000784893 0.00444515)
(0.00509391 -4.72405e-06 0.0292021)
(0.00817752 -0.000597493 0.0574248)
(0.00654263 -0.00125266 0.0148733)
(0.00656149 -0.00257225 0.0214759)
(0.00728384 -0.000776403 0.010764)
(0.00758893 -0.000344386 0.00521837)
(0.0066268 0.000666202 0.0360915)
(0.00397586 0.000726903 0.00528458)
(0.00319459 0.000194199 0.00136375)
(0.00242996 0.00132739 0.00644205)
(0.000258443 0.000304216 0.000965597)
(0.000190388 0.000428744 0.00183194)
(0.000130825 -0.000798396 0.00111124)
(0.000503008 -0.00339749 0.000788836)
(0.00110558 -0.000672781 0.00175905)
(0.00146967 -0.000267273 0.00362642)
(0.00161056 -0.000686014 0.00296394)
(0.00149539 0.000887606 0.0040744)
(0.00181585 0.000130427 0.000234202)
(0.00458856 0.000528208 0.0157552)
(0.000111535 0.000133631 0.00115072)
(-0.000754929 0.000773908 0.00980425)
(-0.00175318 9.96737e-05 0.00978725)
(0.000609115 -0.00109351 0.030914)
(0.00250476 -0.000133693 0.00160033)
(0.00108638 0.000533068 0.00197435)
(0.00023108 -0.000138061 0.000121183)
(7.55455e-05 4.20829e-05 2.79478e-05)
(0.000245506 -7.74976e-05 0.000274728)
(0.00124286 -0.000325191 0.00716684)
(-3.49559e-05 -7.73474e-05 0.00491624)
(-0.000404117 -0.00160695 0.0159933)
(-0.000677062 0.000618859 0.00486014)
(0.000240235 0.000912636 0.00140763)
(0.00150663 0.000400988 0.000399454)
(0.0026041 0.00240972 0.0123879)
(0.00184839 0.00134874 0.000780499)
(0.000267337 7.01164e-05 0.000190837)
(0.000205761 -0.000108424 0.000393057)
(0.00046955 -0.000463392 0.000303975)
(-0.000726922 0.000149861 0.00488422)
(0.000255644 -0.000991356 0.0643618)
(0.00186694 0.000340553 0.0292714)
(0.00163215 0.000516371 0.00063234)
(0.00117124 -0.000150232 0.00101134)
(0.00249724 0.00202634 0.0035503)
(0.0033381 0.0024716 0.0109363)
(0.00195433 0.00103672 0.00105886)
(0.00078365 0.00014802 0.00226267)
(0.000671272 -0.000180304 0.00329945)
(-0.000819143 0.000717127 0.00210519)
(-0.000595839 0.00215789 0.018439)
(0.000733326 0.000415901 0.00218747)
(0.00150388 0.000565322 0.00443963)
(0.00115982 -6.89159e-05 0.000962364)
(0.000802374 0.000380863 0.00104176)
(0.00185488 0.00133499 0.00197794)
(0.00187447 0.000918879 0.00966917)
(0.000940166 -9.19752e-05 0.00304062)
(0.000402816 -0.000150694 0.00480748)
(-0.000912688 0.0010956 0.0013499)
(-0.000543017 0.00144735 0.00406031)
(0.00014754 0.000337795 0.00140745)
(0.00034942 0.000256582 0.000523075)
(0.000340791 0.000263565 0.000335843)
(0.000446714 0.000172944 0.000932321)
(0.000697872 0.000237884 0.000581958)
(0.000566212 4.02976e-05 0.00269106)
(0.000528494 -0.000669401 0.00328802)
(0.000556607 -0.000632597 0.00133239)
(0.0015613 -0.000145493 0.0198465)
(0.00330613 0.00319675 0.01504)
(0.00202741 0.00198663 0.000301453)
(0.00028394 0.00224625 0.000552666)
(3.60697e-05 0.0015202 0.000191007)